1c_01.inp
qchem 1c_01.inp_46004.0 /tmp/SLURM_16679990/qchem46004/ 1
/spack/generic/qchem/6.1.0/exe/qcprog.exe_s 1c_01.inp_46004.0 /tmp/SLURM_16679990/qchem46004/
                  Welcome to Q-Chem
     A Quantum Leap Into The Future Of Chemistry


 Q-Chem 6.1, Q-Chem, Inc., Pleasanton, CA (2022)

 License issued to: University of Southern California (site)

 E. Epifanovsky,  A. T. B. Gilbert,  Xintian Feng,  Joonho Lee,  Yuezhi Mao,  
 N. Mardirossian,  P. Pokhilko,  A. White,  M. Wormit,  M. P. Coons,  
 A. L. Dempwolff,  Zhengting Gan,  D. Hait,  P. R. Horn,  L. D. Jacobson,  
 I. Kaliman,  J. Kussmann,  A. W. Lange,  Ka Un Lao,  D. S. Levine,  Jie Liu,  
 S. C. McKenzie,  A. F. Morrison,  K. D. Nanda,  F. Plasser,  D. R. Rehn,  
 M. L. Vidal,  Zhi-Qiang You,  Ying Zhu,  B. Alam,  B. Albrecht,  
 A. Aldossary,  E. Alguire,  J. H. Andersen,  V. Athavale,  D. Barton,  
 K. Begam,  A. Behn,  N. Bellonzi,  Y. A. Bernard,  E. J. Berquist,  
 H. Burton,  A. Carreras,  K. Carter-Fenk,  Mathew Chow,  Romit Chakraborty,  
 Chandrima Chakravarty,  Junhan Chen,  A. D. Chien,  K. D. Closser,  
 V. Cofer-Shabica,  L. Cunha,  S. Dasgupta,  Jia Deng,  M. de Wergifosse,  
 M. Diedenhofen,  Hainam Do,  S. Ehlert,  Po-Tung Fang,  S. Fatehi,  
 Qingguo Feng,  T. Friedhoff,  Thomas Froitzheim,  B. Ganoe,  J. Gayvert,  
 Qinghui Ge,  G. Gidofalvi,  M. Gimferrer,  M. Goldey,  Montgomery Gray,  
 J. Gomes,  C. Gonzalez-Espinoza,  S. Gulania,  A. Gunina,  J. A. Gyamfi,  
 M. W. D. Hanson-Heine,  P. H. P. Harbach,  A. W. Hauser,  M. F. Herbst,  
 M. Hernandez Vera,  M. Hodecker,  Z. C. Holden,  S. Houck,  Xunkun Huang,  
 Kerwin Hui,  B. C. Huynh,  K. Ikeda,  M. Ivanov,  Hyunjun Ji,  Zuxin Jin,  
 Hanjie Jiang,  Subrata Jana,  B. Kaduk,  S. Kaehler,  R. Kang,  
 K. Khistyaev,  Jaehoon Kim,  Yongbin Kim,  P. Klunzinger,  Z. Koczor-Benda,  
 Joong Hoon Koh,  D. Kosenkov,  Saikiran Kotaru,  L. Koulias,  T. Kowalczyk,  
 C. M. Krauter,  K. Kue,  A. Kunitsa,  T. Kus,  A. Landau,  K. V. Lawler,  
 D. Lefrancois,  S. Lehtola,  Rain Li,  Shaozhi Li,  Yi-Pei Li,  
 Jiashu Liang,  M. Liebenthal,  Hung-Hsuan Lin,  You-Sheng Lin,  Fenglai Liu,  
 Kuan-Yu Liu,  Xiao Liu,  M. Loipersberger,  A. Luenser,  C. Malbon,  
 A. Manjanath,  P. Manohar,  E. Mansoor,  S. F. Manzer,  Shan-Ping Mao,  
 A. V. Marenich,  T. Markovich,  S. Mason,  F. Matz,  S. A. Maurer,  
 P. F. McLaughlin,  M. F. S. J. Menger,  J.-M. Mewes,  S. A. Mewes,  
 P. Morgante,  Mohammad Mostafanejad,  J. W. Mullinax,  K. J. Oosterbaan,  
 G. Paran,  V. Parravicini,  Alexander C. Paul,  Suranjan K. Paul,  
 F. Pavosevic,  Zheng Pei,  S. Prager,  E. I. Proynov,  E. Ramos,  B. Rana,  
 A. E. Rask,  A. Rettig,  R. M. Richard,  F. Rob,  E. Rossomme,  T. Scheele,  
 M. Scheurer,  M. Schneider,  P. E. Schneider,  Tim K. Schramm,  N. Sergueev,  
 S. M. Sharada,  M. Sharma,  Hengyuan Shen,  W. Skomorowski,  D. W. Small,  
 C. J. Stein,  Alistair J. Sterling,  Yingli Su,  Yu-Chuan Su,  
 E. J. Sundstrom,  J. Talbot,  Zhen Tao,  J. Thirman,  Hung-Yi Tsai,  
 T. Tsuchimochi,  N. M. Tubman,  C. Utku,  S. P. Veccham,  O. Vydrov,  
 J. Wenzel,  Jonathan Wong,  J. Witte,  A. Yamada,  Chou-Hsun Yang,  Kun Yao,  
 S. Yeganeh,  S. R. Yost,  A. Zech,  F. Zeller,  Igor Ying Zhang,  
 Xing Zhang,  Yu Zhang,  D. Zuev,  A. Aspuru-Guzik,  A. T. Bell,  
 N. A. Besley,  K. B. Bravaya,  B. R. Brooks,  D. Casanova,  Jeng-Da Chai,  
 Hsing-Ta Chen,  S. Coriani,  C. J. Cramer,  A. E. DePrince, III,  
 R. A. DiStasio Jr.,  A. Dreuw,  B. D. Dunietz,  T. R. Furlani,  
 W. A. Goddard III,  S. Grimme,  S. Hammes-Schiffer,  T. Head-Gordon,  
 W. J. Hehre,  Chao-Ping Hsu,  T.-C. Jagau,  Yousung Jung,  A. Klamt,  
 Jing Kong,  D. S. Lambrecht,  Xiangyuan Li,  WanZhen Liang,  N. J. Mayhall,  
 C. W. McCurdy,  J. B. Neaton,  T. Neudecker,  C. Ochsenfeld,  
 J. A. Parkhill,  R. Peverati,  V. A. Rassolov,  Haisheng Ren,  Yihan Shao,  
 L. V. Slipchenko,  R. P. Steele,  J. E. Subotnik,  A. J. W. Thom,  
 A. Tkatchenko,  D. G. Truhlar,  T. Van Voorhis,  Fan Wang,  
 T. A. Wesolowski,  K. B. Whaley,  H. L. Woodcock III,  P. M. Zimmerman,  
 S. Faraji,  P. M. W. Gill,  M. Head-Gordon,  J. M. Herbert,  A. I. Krylov

 Contributors to earlier versions of Q-Chem not listed above: 
 R. D. Adamson,  B. Austin,  R. Baer,  J. Baker,  G. J. O. Beran,  
 K. Brandhorst,  S. T. Brown,  E. F. C. Byrd,  Arup K. Chakraborty,  
 G. K. L. Chan,  Chun-Min Chang,  Yunqing Chen,  C.-L. Cheng,  
 Siu Hung Chien,  D. M. Chipman,  D. L. Crittenden,  H. Dachsel,  
 R. J. Doerksen,  A. D. Dutoi,  R. G. Edgar,  J. Fosso-Tande,  
 L. Fusti-Molnar,  D. Ghosh,  A. Ghysels,  A. Golubeva-Zadorozhnaya,  
 J. Gonthier,  M. S. Gordon,  S. R. Gwaltney,  G. Hawkins,  J. E. Herr,  
 A. Heyden,  S. Hirata,  E. G. Hohenstein,  G. Kedziora,  F. J. Keil,  
 C. Kelley,  Jihan Kim,  R. A. King,  R. Z. Khaliullin,  P. P. Korambath,  
 W. Kurlancheek,  A. Laurent,  A. M. Lee,  M. S. Lee,  S. V. Levchenko,  
 Ching Yeh Lin,  D. Liotard,  E. Livshits,  R. C. Lochan,  I. Lotan,  
 L. A. Martinez-Martinez,  P. E. Maslen,  N. Nair,  D. P. O'Neill,  
 D. Neuhauser,  E. Neuscamman,  C. M. Oana,  R. Olivares-Amaya,  R. Olson,  
 T. M. Perrine,  B. Peters,  P. A. Pieniazek,  A. Prociuk,  Y. M. Rhee,  
 J. Ritchie,  M. A. Rohrdanz,  E. Rosta,  N. J. Russ,  H. F. Schaefer III,  
 M. W. Schmidt,  N. E. Schultz,  S. Sharma,  N. Shenvi,  C. D. Sherrill,  
 A. C. Simmonett,  A. Sodt,  T. Stein,  D. Stuck,  K. S. Thanthiriwatte,  
 V. Vanovschi,  L. Vogt,  Tao Wang,  A. Warshel,  M. A. Watson,  
 C. F. Williams,  Q. Wu,  X. Xu,  Jun Yang,  W. Zhang,  Yan Zhao

   Please cite Q-Chem as follows:
  "Software for the frontiers of quantum chemistry:
   An overview of developments in the Q-Chem 5 package"
   J. Chem. Phys. 155, 084801 (2021)
   https://doi.org/10.1063/5.0055522 (open access)

 Q-Chem 6.1.0 for Intel X86 EM64T Linux

 Parts of Q-Chem use Armadillo 9.900.5 (Nocturnal Misbehaviour).
 http://arma.sourceforge.net/

 Q-Chem begins on Sun Sep 10 00:12:37 2023  

 Host: 
0

     Scratch files written to /tmp/SLURM_16679990/qchem46004//
 Jul923 |scratch|qcdevops|jenkins|workspace|build_RNUM 8608   
 Processing $rem in /spack/generic/qchem/6.1.0/config/preferences:
 Processing $rem in /home1/sarkarp/.qchemrc:

 Checking the input file for inconsistencies... 	...done.
 Reading auxiliary files from /spack/generic/qchem/6.1.0/qcaux (QCAUX)

--------------------------------------------------------------
User input:
--------------------------------------------------------------
$molecule
2 1
Cu      1.5845062622     0.0960274548    -0.0097387695
Cu     -1.2333865956     0.3294964495    -0.0189848584
O       0.1762707203     0.2710185015     1.0885221498
O       0.1717365358     0.1487814510    -1.1162208774
N      -2.8227065495     0.5485268778     1.1212842865
N      -2.8157223245     0.4145387179    -1.1858372129
N       3.1811910869     0.0411751113     1.1532180030
N       3.1840041456    -0.0744352397    -1.1573652619
H      -2.8382796461     1.3930745868     1.6865530132
H      -2.9699662512    -0.4450143577    -1.7059709987
H       3.2215454392    -0.7622119587     1.7747775487
H       3.3224275429     0.6953105860    -1.8067293803
H       3.3166428854     0.8726888487     1.7220761457
H       3.2262363800    -0.9361572468    -1.6950738951
H      -2.9849994135    -0.2424703742     1.7384258663
H      -2.8287121960     1.1859179565    -1.8474546647
C      -3.7439524459     0.5901313822    -0.0417606656
C       4.1126016694    -0.0510211513     0.0009756566
H      -4.2569272060     1.5475120295    -0.0984203051
H      -4.4775840458    -0.2111823165     0.0039550740
H       4.7121614762    -0.9573887049     0.0463513930
H       4.7676535098     0.8161786162    -0.0414173135
C      -2.0706431930    -2.7130636067     0.1663655641
H      -1.5804924475    -2.3095047783     1.0557157463
H      -3.1164624143    -2.3971458638     0.1195141019
H      -2.0562110058    -3.8001984031     0.2314223469
H      -1.5322219189    -2.4150145680    -0.7367326929
$end

$rem
basis = gen
ecp = gen
method = wb97xd
job_type = optimization
geom_opt_max_cycles = 500
scf_max_cycles = 300
mem_static = 5000
mem_total = 192000
scf_convergence = 8
symmetry = false
sym_ignore = true
unrestricted = 1
thresh = 14
scf_algorithm = DIIS_GDM
$end

$ecp
Cu
srsc
****
$end

$basis
Cu
srsc
****
O
6-311+G*
****
C
6-311+G*
****
N
6-311+G*
****
H
6-311+G*
****
$end

--------------------------------------------------------------
 ----------------------------------------------------------------
             Standard Nuclear Orientation (Angstroms)
    I     Atom           X                Y                Z
 ----------------------------------------------------------------
    1      Cu      1.5845062622     0.0960274548    -0.0097387695
    2      Cu     -1.2333865956     0.3294964495    -0.0189848584
    3      O       0.1762707203     0.2710185015     1.0885221498
    4      O       0.1717365358     0.1487814510    -1.1162208774
    5      N      -2.8227065495     0.5485268778     1.1212842865
    6      N      -2.8157223245     0.4145387179    -1.1858372129
    7      N       3.1811910869     0.0411751113     1.1532180030
    8      N       3.1840041456    -0.0744352397    -1.1573652619
    9      H      -2.8382796461     1.3930745868     1.6865530132
   10      H      -2.9699662512    -0.4450143577    -1.7059709987
   11      H       3.2215454392    -0.7622119587     1.7747775487
   12      H       3.3224275429     0.6953105860    -1.8067293803
   13      H       3.3166428854     0.8726888487     1.7220761457
   14      H       3.2262363800    -0.9361572468    -1.6950738951
   15      H      -2.9849994135    -0.2424703742     1.7384258663
   16      H      -2.8287121960     1.1859179565    -1.8474546647
   17      C      -3.7439524459     0.5901313822    -0.0417606656
   18      C       4.1126016694    -0.0510211513     0.0009756566
   19      H      -4.2569272060     1.5475120295    -0.0984203051
   20      H      -4.4775840458    -0.2111823165     0.0039550740
   21      H       4.7121614762    -0.9573887049     0.0463513930
   22      H       4.7676535098     0.8161786162    -0.0414173135
   23      C      -2.0706431930    -2.7130636067     0.1663655641
   24      H      -1.5804924475    -2.3095047783     1.0557157463
   25      H      -3.1164624143    -2.3971458638     0.1195141019
   26      H      -2.0562110058    -3.8001984031     0.2314223469
   27      H      -1.5322219189    -2.4150145680    -0.7367326929
 ----------------------------------------------------------------
 Nuclear Repulsion Energy =        1090.45827610 hartrees
 There are       57 alpha and       57 beta electrons
 Requested basis set is non-standard
 There are 130 shells and 318 basis functions

 Total QAlloc Memory Limit 192000 MB
 Mega-Array Size      4888 MB
 MEM_STATIC part      5000 MB

 -----------------------------------------------------------------------
                STARTING GEOMETRY OPTIMIZER USING LIBOPT3
                by Peter F. McLaughlin, Yu Zhang, Evgeny Epifanovsky
 -----------------------------------------------------------------------

              Initial Energy and Gradient Calculation
   -- Checking Topology for Ill-Behaving Coordinates --

 -------------------------------------------
   Coordinate       |  Removed | Additions 
 -------------------------------------------
	Bonds                     0          0
	Angles                    4          0
	Torsions                 16         16
	Co-Linear Type5s          0         16
	Co-Linear Type6s          0         16
 -------------------------------------------

 ** Ill-Behaving Topology Definitions (No action needed.) **

  Ill-Defined Angles Removed: 
   3   1   8,   4   1   7,   3   2   6,   4   2   5

  Ill-Defined Torsions Removed: 
   1   3   2   6,   1   4   2   5,   2   3   1   8,   2   4   1   7,   3   1   8  12
   3   1   8  14,   3   1   8  18,   3   2   6  10,   3   2   6  16,   3   2   6  17
   4   1   7  11,   4   1   7  13,   4   1   7  18,   4   2   5   9,   4   2   5  15
   4   2   5  17

     Done Checking Topology
 ----------------------------------------------------------------
             Standard Nuclear Orientation (Angstroms)
    I     Atom           X                Y                Z
 ----------------------------------------------------------------
    1      Cu      1.5845062622     0.0960274548    -0.0097387695
    2      Cu     -1.2333865956     0.3294964495    -0.0189848584
    3      O       0.1762707203     0.2710185015     1.0885221498
    4      O       0.1717365358     0.1487814510    -1.1162208774
    5      N      -2.8227065495     0.5485268778     1.1212842865
    6      N      -2.8157223245     0.4145387179    -1.1858372129
    7      N       3.1811910869     0.0411751113     1.1532180030
    8      N       3.1840041456    -0.0744352397    -1.1573652619
    9      H      -2.8382796461     1.3930745868     1.6865530132
   10      H      -2.9699662512    -0.4450143577    -1.7059709987
   11      H       3.2215454392    -0.7622119587     1.7747775487
   12      H       3.3224275429     0.6953105860    -1.8067293803
   13      H       3.3166428854     0.8726888487     1.7220761457
   14      H       3.2262363800    -0.9361572468    -1.6950738951
   15      H      -2.9849994135    -0.2424703742     1.7384258663
   16      H      -2.8287121960     1.1859179565    -1.8474546647
   17      C      -3.7439524459     0.5901313822    -0.0417606656
   18      C       4.1126016694    -0.0510211513     0.0009756566
   19      H      -4.2569272060     1.5475120295    -0.0984203051
   20      H      -4.4775840458    -0.2111823165     0.0039550740
   21      H       4.7121614762    -0.9573887049     0.0463513930
   22      H       4.7676535098     0.8161786162    -0.0414173135
   23      C      -2.0706431930    -2.7130636067     0.1663655641
   24      H      -1.5804924475    -2.3095047783     1.0557157463
   25      H      -3.1164624143    -2.3971458638     0.1195141019
   26      H      -2.0562110058    -3.8001984031     0.2314223469
   27      H      -1.5322219189    -2.4150145680    -0.7367326929
 ----------------------------------------------------------------
 Nuclear Repulsion Energy =        1090.45827610 hartrees
 There are       57 alpha and       57 beta electrons
 Requested basis set is non-standard
 There are 130 shells and 318 basis functions
 A cutoff of  1.0D-14 yielded   7079 shell pairs
 There are     43716 function pairs (     47890 Cartesian)
 Requested basis set is non-standard
 Compound shells will be simplified
 There are 166 shells and 318 basis functions
 A cutoff of  1.0D-14 yielded  11653 shell pairs
 There are     43519 function pairs (     47687 Cartesian)
 Smallest overlap matrix eigenvalue = 8.32E-05

 Scale SEOQF with 1.000000e-01/1.000000e-01/1.000000e-01

 Standard Electronic Orientation quadrupole field applied
 Nucleus-field energy     =     0.0000000235 hartrees
 ================ Generating on-the-fly SAD Guess ================
 Attempting to make child job directory: /tmp/SLURM_16679990/qchem46004//Frg1/
 Attempting to make child job directory: /tmp/SLURM_16679990/qchem46004//Frg2/
 Attempting to make child job directory: /tmp/SLURM_16679990/qchem46004//Frg3/
 Attempting to make child job directory: /tmp/SLURM_16679990/qchem46004//Frg4/
 Attempting to make child job directory: /tmp/SLURM_16679990/qchem46004//Frg5/
 Creating input file /tmp/SLURM_16679990/qchem46004/Frg1.input
 using default PutDataFrgm: nothing
 calling putenv with: QCSCRATCH=/tmp/SLURM_16679990/qchem46004/ 
 calling putenv with: QCLOCALSCR=/tmp/SLURM_16679990/qchem46004/ 
 Spawning Job For Fragment 0
 Done Job For Fragment 0
 calling putenv with: QCSCRATCH=/scratch1/sarkarp 
 calling putenv with: QCLOCALSCR=/tmp/SLURM_16679990 
 calling putenv with: QCTHREADS=64 
 Creating input file /tmp/SLURM_16679990/qchem46004/Frg2.input
 using default PutDataFrgm: nothing
 calling putenv with: QCSCRATCH=/tmp/SLURM_16679990/qchem46004/ 
 calling putenv with: QCLOCALSCR=/tmp/SLURM_16679990/qchem46004/ 
 Spawning Job For Fragment 1
 Done Job For Fragment 1
 calling putenv with: QCSCRATCH=/scratch1/sarkarp 
 calling putenv with: QCLOCALSCR=/tmp/SLURM_16679990 
 calling putenv with: QCTHREADS=64 
 Creating input file /tmp/SLURM_16679990/qchem46004/Frg3.input
 using default PutDataFrgm: nothing
 calling putenv with: QCSCRATCH=/tmp/SLURM_16679990/qchem46004/ 
 calling putenv with: QCLOCALSCR=/tmp/SLURM_16679990/qchem46004/ 
 Spawning Job For Fragment 2
 Done Job For Fragment 2
 calling putenv with: QCSCRATCH=/scratch1/sarkarp 
 calling putenv with: QCLOCALSCR=/tmp/SLURM_16679990 
 calling putenv with: QCTHREADS=64 
 Creating input file /tmp/SLURM_16679990/qchem46004/Frg4.input
 using default PutDataFrgm: nothing
 calling putenv with: QCSCRATCH=/tmp/SLURM_16679990/qchem46004/ 
 calling putenv with: QCLOCALSCR=/tmp/SLURM_16679990/qchem46004/ 
 Spawning Job For Fragment 3
 Done Job For Fragment 3
 calling putenv with: QCSCRATCH=/scratch1/sarkarp 
 calling putenv with: QCLOCALSCR=/tmp/SLURM_16679990 
 calling putenv with: QCTHREADS=64 
 Creating input file /tmp/SLURM_16679990/qchem46004/Frg5.input
 using default PutDataFrgm: nothing
 calling putenv with: QCSCRATCH=/tmp/SLURM_16679990/qchem46004/ 
 calling putenv with: QCLOCALSCR=/tmp/SLURM_16679990/qchem46004/ 
 Spawning Job For Fragment 4
 Done Job For Fragment 4
 calling putenv with: QCSCRATCH=/scratch1/sarkarp 
 calling putenv with: QCLOCALSCR=/tmp/SLURM_16679990 
 calling putenv with: QCTHREADS=64 
 Time for running child jobs:  CPU 9.77 s  wall 14.23 s
 ============= Method Specific SAD Guess Constructed =============
 Guess from on-the-fly superposition of atomic densities
 Warning: Energy on first SCF cycle will be non-variational

 -----------------------------------------------------------------------
  General SCF calculation program by
  Eric Jon Sundstrom, Paul Horn, Yuezhi Mao, Dmitri Zuev, Alec White,
  David Stuck, Shaama M.S., Shane Yost, Joonho Lee, David Small,
  Daniel Levine, Susi Lehtola, Hugh Burton, Evgeny Epifanovsky,
  Bang C. Huynh
 -----------------------------------------------------------------------
 Exchange:     0.2220 Hartree-Fock + 1.0000 wB97X-D + LR-HF
 Correlation:  1.0000 wB97X-D
 Using SG-2 standard quadrature grid
 Dispersion:   Grimme D
 using 64 threads for integral computing
 -------------------------------------------------------
 OpenMP Integral computing Module                
 Release: version 1.0, May 2013, Q-Chem Inc. Pittsburgh 
 -------------------------------------------------------
 A unrestricted SCF calculation will be
 performed using DIIS, GDM
 SCF converges when RMS gradient is below 1.0e-08
 ---------------------------------------
  Cycle       Energy         DIIS error
 ---------------------------------------
    1    -894.7951558644      2.22e-02  
    2    -886.3361070363      5.70e-03  Done DIIS. Switching to GDM
 ---------------------------------------
  Cycle       Energy        RMS Gradient
 ---------------------------------------
    1    -886.3361070363      1.12e+00   Descent step
    2    -887.0268002847      7.91e-01   Descent step
    3    -887.2735809135      1.95e-01   Descent step
    4    -887.3706306846      1.82e-01   Descent step
    5    -887.3805147893      2.54e-01   Normal BFGS step
    6    -887.4488068797      4.05e-02   Normal BFGS step
    7    -887.4501034967      4.65e-02   Normal BFGS step
    8    -887.4557943717      6.60e-03   Normal BFGS step
    9    -887.4560190966      8.33e-03   Normal BFGS step
   10    -887.4561253482      6.46e-03   Normal BFGS step
   11    -887.4562638581      2.87e-03   Normal BFGS step
   12    -887.4563020285      2.63e-03   Normal BFGS step
   13    -887.4563725527      3.00e-03   Normal BFGS step
   14    -887.4564836360      7.07e-03   Normal BFGS step
   15    -887.4566214750      4.43e-03   Normal BFGS step
   16    -887.4567018845      2.25e-03   Normal BFGS step
   17    -887.4567309100      8.37e-04   Normal BFGS step
   18    -887.4567342674      2.54e-04   Normal BFGS step
   19    -887.4567347300      1.28e-04   Normal BFGS step
   20    -887.4567348877      1.12e-04   Normal BFGS step
   21    -887.4567349398      9.06e-05   Normal BFGS step
   22    -887.4567350313      1.02e-04   Normal BFGS step
   23    -887.4567351062      7.36e-05   Normal BFGS step
   24    -887.4567351431      2.85e-05   Normal BFGS step
   25    -887.4567351519      3.75e-05   Normal BFGS step
   26    -887.4567351519      5.07e-05   Normal BFGS step
   27    -887.4567351579      8.87e-06   Normal BFGS step
   28    -887.4567351592      6.43e-06   Normal BFGS step
   29    -887.4567351600      6.48e-06   Normal BFGS step
   30    -887.4567351601      1.23e-05   Normal BFGS step
   31    -887.4567351603      2.19e-06   Normal BFGS step
   32    -887.4567351604      2.10e-06   Normal BFGS step
   33    -887.4567351604      1.12e-06   Normal BFGS step
   34    -887.4567351604      1.61e-06   Normal BFGS step
   35    -887.4567351604      1.81e-06   Normal BFGS step
   36    -887.4567351604      6.54e-07   Normal BFGS step
   37    -887.4567351604      5.37e-07   Normal BFGS step
   38    -887.4567351604      3.80e-07   Normal BFGS step
   39    -887.4567351604      1.50e-07   Normal BFGS step
   40    -887.4567351605      1.58e-07   Normal BFGS step
   41    -887.4567351604      1.28e-07   Normal BFGS step
   42    -887.4567351604      7.38e-08   Normal BFGS step
   43    -887.4567351605      3.36e-08   Normal BFGS step
   44    -887.4567351604      2.59e-08   Normal BFGS step
   45    -887.4567351605      2.31e-08   Normal BFGS step
   46    -887.4567351605      2.61e-08   Normal BFGS step
   47    -887.4567351604      1.76e-08   Normal BFGS step
   48    -887.4567351604      9.61e-09  Convergence criterion met
 ---------------------------------------
 SCF time:   CPU 2758.42s  wall 43.00s 
<S^2> =          0.286552033
 SCF   energy in the final basis set =     -887.4567351604
 Total energy in the final basis set =     -887.4567351604
 
 --------------------------------------------------------------
 
                    Orbital Energies (a.u.)
 --------------------------------------------------------------
 
 Alpha MOs
 -- Occupied --
-19.5444 -19.5444 -14.7678 -14.7678 -14.7672 -14.7671 -10.6486 -10.6478
-10.4908  -5.0381  -5.0369  -3.3346  -3.3324  -3.3306  -3.3284  -3.3045
 -3.3038  -1.3588  -1.3562  -1.3365  -1.2852  -1.2781  -1.2773  -1.0612
 -1.0604  -1.0240  -0.9411  -0.9407  -0.9178  -0.9173  -0.8890  -0.8886
 -0.8409  -0.8404  -0.8298  -0.8185  -0.8142  -0.7957  -0.7792  -0.7764
 -0.7739  -0.7692  -0.7624  -0.7617  -0.7598  -0.7533  -0.7252  -0.7246
 -0.7159  -0.7117  -0.7094  -0.6990  -0.6911  -0.6851  -0.6616  -0.6522
 -0.6344
 -- Virtual --
 -0.3446  -0.3317  -0.1939  -0.1807  -0.1595  -0.1587  -0.1470  -0.1438
 -0.1378  -0.1349  -0.1303  -0.1222  -0.1154  -0.1040  -0.0998  -0.0966
 -0.0921  -0.0903  -0.0820  -0.0742  -0.0704  -0.0675  -0.0667  -0.0508
 -0.0485  -0.0467  -0.0449  -0.0385  -0.0351  -0.0300  -0.0263  -0.0219
 -0.0211  -0.0163  -0.0152  -0.0129  -0.0067  -0.0058  -0.0005   0.0018
  0.0188   0.0236   0.0309   0.0460   0.0535   0.0575   0.0614   0.0639
  0.0658   0.0716   0.0739   0.0770   0.0794   0.0906   0.0929   0.0973
  0.1037   0.1047   0.1083   0.1180   0.1182   0.1196   0.1271   0.1412
  0.1421   0.1468   0.1706   0.1728   0.1790   0.1984   0.2089   0.2157
  0.2340   0.2366   0.2481   0.2529   0.2692   0.2816   0.2868   0.2893
  0.3011   0.3105   0.3256   0.3283   0.3363   0.3451   0.3518   0.3548
  0.3596   0.3701   0.3743   0.3776   0.3779   0.4050   0.4118   0.4281
  0.4408   0.4557   0.4593   0.4720   0.4791   0.4893   0.5005   0.5150
  0.5250   0.5273   0.5426   0.5533   0.5602   0.5762   0.5995   0.6016
  0.6100   0.6147   0.6179   0.6252   0.6773   0.7200   0.7407   0.7447
  0.7579   0.7824   0.8112   0.8615   0.8709   0.8953   0.8974   0.9269
  0.9822   0.9855   1.0056   1.0064   1.0528   1.0717   1.0754   1.1078
  1.1368   1.1386   1.1570   1.1697   1.1741   1.1831   1.1842   1.1968
  1.2210   1.2381   1.2737   1.3176   1.3442   1.3515   1.3654   1.3775
  1.3875   1.4510   1.4636   1.4881   1.4908   1.4992   1.5705   1.5863
  1.5884   1.5945   1.6927   1.7953   1.8156   1.8273   1.8293   1.8445
  1.8464   1.8586   1.8824   1.9461   1.9507   1.9623   1.9809   1.9884
  2.1316   2.1550   2.1763   2.2282   2.2334   2.2964   2.3052   2.3092
  2.3325   2.3332   2.3596   2.3679   2.4020   2.4155   2.4624   2.4777
  2.4824   2.4839   2.5564   2.5688   2.6079   2.6147   2.6433   2.6545
  2.6719   2.6774   2.7028   2.7041   2.7185   2.7476   2.7795   2.7985
  2.8149   2.8297   2.8361   2.9432   2.9777   2.9960   2.9981   3.0226
  3.0360   3.0908   3.1142   3.1269   3.1766   3.1996   3.2211   3.2224
  3.5437   3.6239   3.8185   3.8283   3.8634   3.8804   3.9398   3.9648
  3.9877   4.0201   4.3410   4.3668   4.4177   4.4255   4.8520   4.8783
  4.8955   5.0625   5.0735   5.1150  23.3834  23.4333  23.4544  35.2979
 35.3046  35.3152  35.3208  49.7749  49.8301  57.1971  57.2543  57.3690
 57.4051  57.4696  57.5265  78.6461  78.7485
 
 Beta MOs
 -- Occupied --
-19.5360 -19.5360 -14.7688 -14.7688 -14.7680 -14.7679 -10.6486 -10.6478
-10.4908  -5.0577  -5.0563  -3.3615  -3.3599  -3.3573  -3.3559  -3.3121
 -3.3104  -1.3589  -1.3577  -1.3124  -1.2802  -1.2791  -1.2577  -1.0618
 -1.0609  -1.0240  -0.9418  -0.9413  -0.9197  -0.9185  -0.8899  -0.8896
 -0.8522  -0.8426  -0.8413  -0.8193  -0.8133  -0.8128  -0.8005  -0.7807
 -0.7799  -0.7746  -0.7691  -0.7687  -0.7620  -0.7572  -0.7296  -0.7213
 -0.7204  -0.7119  -0.7092  -0.6949  -0.6715  -0.6608  -0.6560  -0.6465
 -0.6249
 -- Virtual --
 -0.3718  -0.3419  -0.1941  -0.1808  -0.1590  -0.1581  -0.1475  -0.1439
 -0.1377  -0.1349  -0.1300  -0.1222  -0.1151  -0.1037  -0.0999  -0.0962
 -0.0922  -0.0903  -0.0823  -0.0743  -0.0708  -0.0672  -0.0656  -0.0507
 -0.0481  -0.0465  -0.0449  -0.0386  -0.0352  -0.0301  -0.0263  -0.0220
 -0.0214  -0.0165  -0.0155  -0.0129  -0.0069  -0.0058  -0.0005   0.0019
  0.0191   0.0233   0.0313   0.0458   0.0538   0.0584   0.0618   0.0638
  0.0658   0.0715   0.0739   0.0769   0.0794   0.0910   0.0932   0.0969
  0.1035   0.1048   0.1080   0.1180   0.1196   0.1200   0.1271   0.1417
  0.1432   0.1467   0.1711   0.1732   0.1798   0.1988   0.2089   0.2160
  0.2346   0.2378   0.2489   0.2523   0.2693   0.2815   0.2862   0.2891
  0.3011   0.3103   0.3254   0.3284   0.3361   0.3450   0.3524   0.3564
  0.3594   0.3710   0.3751   0.3775   0.3803   0.4050   0.4126   0.4287
  0.4406   0.4560   0.4589   0.4719   0.4787   0.4893   0.5005   0.5149
  0.5249   0.5271   0.5426   0.5529   0.5601   0.5764   0.5990   0.6022
  0.6094   0.6141   0.6180   0.6245   0.6770   0.7188   0.7400   0.7441
  0.7571   0.7826   0.8110   0.8620   0.8717   0.8963   0.9014   0.9322
  0.9847   0.9952   1.0051   1.0114   1.0565   1.0711   1.0751   1.1062
  1.1358   1.1388   1.1572   1.1674   1.1740   1.1825   1.1842   1.1992
  1.2193   1.2381   1.2735   1.3149   1.3454   1.3525   1.3640   1.3775
  1.3876   1.4510   1.4642   1.4879   1.4913   1.4991   1.5703   1.5857
  1.5923   1.5943   1.6998   1.7948   1.8138   1.8259   1.8277   1.8433
  1.8456   1.8567   1.8810   1.9450   1.9496   1.9615   1.9800   1.9891
  2.1322   2.1544   2.1753   2.2267   2.2322   2.2968   2.3053   2.3092
  2.3322   2.3329   2.3595   2.3675   2.4018   2.4153   2.4622   2.4746
  2.4835   2.4847   2.5555   2.5680   2.6139   2.6150   2.6459   2.6610
  2.6722   2.6832   2.7044   2.7164   2.7287   2.7611   2.7801   2.8028
  2.8196   2.8501   2.8567   2.9425   2.9779   2.9960   2.9985   3.0236
  3.0460   3.0958   3.1153   3.1266   3.1756   3.1989   3.2219   3.2394
  3.5402   3.6220   3.8162   3.8261   3.8624   3.8795   3.9373   3.9638
  3.9867   4.0190   4.3401   4.3660   4.4167   4.4247   4.8620   4.8880
  4.9284   5.0834   5.1033   5.1339  23.3834  23.4334  23.4545  35.2970
 35.3037  35.3144  35.3199  49.7829  49.8381  57.1943  57.2518  57.3108
 57.3464  57.4111  57.4678  78.6104  78.7141
 --------------------------------------------------------------
 
          Ground-State Mulliken Net Atomic Charges

     Atom                 Charge (a.u.)    Spin (a.u.)
  --------------------------------------------------------
      1 Cu                    0.353178      -0.321057
      2 Cu                    0.227965      -0.281845
      3 O                     0.060188       0.375363
      4 O                     0.063982       0.372747
      5 N                    -0.642570      -0.036158
      6 N                    -0.643686      -0.036061
      7 N                    -0.674060      -0.043148
      8 N                    -0.675461      -0.043253
      9 H                     0.479848       0.000421
     10 H                     0.492274       0.000562
     11 H                     0.485623       0.000701
     12 H                     0.485714       0.000691
     13 H                     0.486314       0.000684
     14 H                     0.485963       0.000705
     15 H                     0.490727       0.000573
     16 H                     0.480388       0.000407
     17 C                    -0.715086       0.003317
     18 C                    -0.805261       0.005628
     19 H                     0.361188       0.000018
     20 H                     0.368783       0.000046
     21 H                     0.362702       0.000044
     22 H                     0.363232       0.000027
     23 C                    -1.026907      -0.000491
     24 H                     0.272371       0.000018
     25 H                     0.246762       0.000031
     26 H                     0.342283       0.000024
     27 H                     0.273543       0.000009
  --------------------------------------------------------
  Sum of atomic charges =     2.000000
  Sum of spin   charges =     0.000000

 -----------------------------------------------------------------
                    Cartesian Multipole Moments
 -----------------------------------------------------------------
    Charge (ESU x 10^10)
                 9.6064
    Dipole Moment (Debye)
         X       1.4836      Y       1.2635      Z      -0.1086
       Tot       1.9517
    Quadrupole Moments (Debye-Ang)
        XX      44.1975     XY      -6.9499     YY     -62.8444
        XZ       0.3677     YZ       0.1636     ZZ     -58.8302
    Octopole Moments (Debye-Ang^2)
       XXX      79.9706    XXY      28.6135    XYY      -6.9989
       YYY       6.5596    XXZ      -1.9087    XYZ       0.8218
       YYZ       1.1012    XZZ       8.9235    YZZ      11.2299
       ZZZ      -1.7533
    Hexadecapole Moments (Debye-Ang^3)
      XXXX   -1430.6698   XXXY    -116.1964   XXYY    -440.0235
      XYYY     -25.3126   YYYY    -402.0787   XXXZ       6.2804
      XXYZ       5.4510   XYYZ      -2.0487   YYYZ       2.9572
      XXZZ    -344.2674   XYZZ     -30.0053   YYZZ    -121.0150
      XZZZ       5.4709   YZZZ       4.3619   ZZZZ    -305.8652
 -----------------------------------------------------------------
 Calculating analytic gradient of the SCF energy
 Gradient of SCF Energy
            1           2           3           4           5           6
    1   0.0002606  -0.0000446  -0.0001317  -0.0001145   0.0000677   0.0000637
    2  -0.0001017   0.0000942   0.0000488  -0.0000096  -0.0000118  -0.0000202
    3   0.0000433  -0.0000737  -0.0000220   0.0000211  -0.0000747   0.0000704
            7           8           9          10          11          12
    1  -0.0001454  -0.0001287  -0.0000159   0.0000596   0.0000276   0.0000330
    2   0.0000172  -0.0000098   0.0000100   0.0000072   0.0000173  -0.0000118
    3  -0.0000435   0.0000547  -0.0000149  -0.0000187   0.0000149   0.0000030
           13          14          15          16          17          18
    1   0.0000293   0.0000386  -0.0000030  -0.0000087  -0.0000105   0.0000292
    2  -0.0000009   0.0000037   0.0000509  -0.0000034  -0.0000443  -0.0000037
    3   0.0000079   0.0000024   0.0000233  -0.0000135   0.0000059   0.0000013
           19          20          21          22          23          24
    1   0.0000187  -0.0000417  -0.0000030  -0.0000061   0.0000101   0.0000218
    2   0.0000123   0.0000544  -0.0000051   0.0000012  -0.0000041  -0.0000179
    3  -0.0000224  -0.0000082   0.0000120   0.0000031   0.0000108  -0.0000131
           25          26          27
    1   0.0000228  -0.0000058  -0.0000231
    2  -0.0000628   0.0000031  -0.0000133
    3   0.0000136   0.0000207  -0.0000035
 Max gradient component =       2.606E-04
 RMS gradient           =       5.234E-05
 Gradient time:  CPU 150.26 s  wall 2.82 s

 *****************************************************
             Starting BFGS Algorithm
 *****************************************************
            LIBOPT3 RUN PARAMETERS

  Geometry Optimization Coordinates :
	Delocalized Natural Internal Coordinates

  Step Length Selection Method :
	Eigenvector Following Algorithm

  Step Length Limiter :
	Root-Mean-Square of Gradient

  Convergence Criteria :
	Max Gradient Component    	3.00000000e-04
	Max Displacement Component	1.20000000e-03
	Absolute Energy Difference	1.00000000e-06

  Initial Hessian :
	Approximate Hessian - Simple Internal Coordinate Scaled

  Type of Verification :
	Verify with final updated Hessian
 *****************************************************

	OPTIMIZATION CYCLE:	1

 Scaling Magnitude of Eigenvalues
 	Minimum: -25.00000000	 Maximum: 25.00000000
 75 Hessian Eigenvalues to form next step
   0.10001432   0.10002221   0.10229131   0.10563174   0.10886181
   0.11197018   0.11204049   0.11234971   0.11512759   0.11726634
   0.11827501   0.11918804   0.12266974   0.12334975   0.12627925
   0.12682956   0.12725563   0.12805560   0.12834548   0.12990399
   0.13107599   0.13231361   0.13500154   0.13586143   0.14030636
   0.14070098   0.14230092   0.14527507   0.14567784   0.14583663
   0.14805269   0.14934802   0.15277789   0.16099555   0.16677339
   0.17278520   0.18743023   0.19721066   0.22448455   0.22495544
   0.27211494   0.27543466   0.28839026   0.32072695   0.36655432
   0.36960368   0.40304863   0.41433235   0.41676886   0.43023060
   0.44309702   0.44551225   0.44805005   0.46050422   0.46924564
   0.47710519   0.48009114   0.48764250   0.48889852   0.49259520
   0.50000000   0.50000000   0.50000000   0.50000000   0.50327349
   0.50566520   0.50977853   0.51129629   0.51927687   0.52001988
   0.52056253   0.52187781   0.52277408   0.52535756   0.53496705


 Minimum Search taking a RFO step
 Searching for Lambda that minimizes along all modes
	Value of Lambda   -0.00000017
	Norm  of Stepsize  0.00082931
	RMS   of Stepsize  0.00009576

	Performing Iterative Coordinate Back-Transformation

	  Starting from Previous Position

	  iter:	0	rms: 9.4849060241e-05	maxdev: 2.5297172963e-04
	  iter:	1	rms: 4.5363764942e-09	maxdev: 1.2090669692e-08	 Success!

	Finished Iterative Coordinate Back-Transformation
 ----------------------------------------------------------------
             Standard Nuclear Orientation (Angstroms)
    I     Atom           X                Y                Z
 ----------------------------------------------------------------
    1      Cu      1.5845322447     0.0960426687    -0.0097425943
    2      Cu     -1.2333509841     0.3294529450    -0.0189631990
    3      O       0.1763903899     0.2709399988     1.0885589736
    4      O       0.1718433578     0.1487922535    -1.1162357778
    5      N      -2.8227771386     0.5485002444     1.1213168626
    6      N      -2.8157594498     0.4145196156    -1.1858846730
    7      N       3.1813022198     0.0411638536     1.1532231916
    8      N       3.1841000292    -0.0743921063    -1.1573940477
    9      H      -2.8383422819     1.3930442912     1.6865899088
   10      H      -2.9700395044    -0.4450385982    -1.7060039755
   11      H       3.2215676502    -0.7622544287     1.7747477083
   12      H       3.3224258789     0.6953704556    -1.8067577067
   13      H       3.3166481302     0.8726802989     1.7220996333
   14      H       3.2262298244    -0.9361244725    -1.6950941919
   15      H      -2.9851295364    -0.2425002268     1.7384424501
   16      H      -2.8287210595     1.1858980156    -1.8475002040
   17      C      -3.7439734225     0.5901387781    -0.0417866341
   18      C       4.1126863888    -0.0510018725     0.0009624591
   19      H      -4.2569811524     1.5475001714    -0.0984450034
   20      H      -4.4775894848    -0.2111912497     0.0039137151
   21      H       4.7122445565    -0.9573709009     0.0463163426
   22      H       4.7677589932     0.8161840074    -0.0414097486
   23      C      -2.0707137777    -2.7130324279     0.1664075331
   24      H      -1.5806263129    -2.3095001446     1.0558054903
   25      H      -3.1165353551    -2.3971311218     0.1194967149
   26      H      -2.0562494600    -3.8001691268     0.2314365513
   27      H      -1.5322307435    -2.4149509207    -0.7366497784
 ----------------------------------------------------------------
 Nuclear Repulsion Energy =        1090.44298956 hartrees
 There are       57 alpha and       57 beta electrons
 Applying Cartesian multipole field
    Component          Value
    ---------          -----
     (2,0,0)        1.00000E-11
     (0,2,0)        2.00000E-11
     (0,0,2)       -3.00000E-11
 Nucleus-field energy     = 2.3540062209e-08 hartrees
 Read the previous MOs as SCF guess

 -----------------------------------------------------------------------
  General SCF calculation program by
  Eric Jon Sundstrom, Paul Horn, Yuezhi Mao, Dmitri Zuev, Alec White,
  David Stuck, Shaama M.S., Shane Yost, Joonho Lee, David Small,
  Daniel Levine, Susi Lehtola, Hugh Burton, Evgeny Epifanovsky,
  Bang C. Huynh
 -----------------------------------------------------------------------
 Requested basis set is non-standard
 There are 130 shells and 318 basis functions
 Exchange:     0.2220 Hartree-Fock + 1.0000 wB97X-D + LR-HF
 Correlation:  1.0000 wB97X-D
 Using SG-2 standard quadrature grid
 Dispersion:   Grimme D
 A cutoff of  1.0D-14 yielded   7079 shell pairs
 There are     43716 function pairs (     47890 Cartesian)
 Requested basis set is non-standard
 Compound shells will be simplified
 There are 166 shells and 318 basis functions
 A cutoff of  1.0D-14 yielded  11653 shell pairs
 There are     43519 function pairs (     47687 Cartesian)
 Smallest overlap matrix eigenvalue = 8.32E-05
 A unrestricted SCF calculation will be
 performed using DIIS, GDM
 SCF converges when RMS gradient is below 1.0e-08
 ---------------------------------------
  Cycle       Energy         DIIS error
 ---------------------------------------
    1    -887.4568481733      1.18e-06  
    2    -887.4567353132      2.05e-07  Done DIIS. Switching to GDM
 ---------------------------------------
  Cycle       Energy        RMS Gradient
 ---------------------------------------
    1    -887.4567353132      1.74e-05   Normal BFGS step
    2    -887.4567353147      1.22e-05   Normal BFGS step
    3    -887.4567353160      1.17e-05   Normal BFGS step
    4    -887.4567353160      1.52e-05   Normal BFGS step
    5    -887.4567353169      7.79e-06   Normal BFGS step
    6    -887.4567353174      6.69e-06   Normal BFGS step
    7    -887.4567353181      6.89e-06   Normal BFGS step
    8    -887.4567353184      5.59e-06   Normal BFGS step
    9    -887.4567353185      6.48e-06   Normal BFGS step
   10    -887.4567353186      2.08e-06   Normal BFGS step
   11    -887.4567353186      1.69e-06   Normal BFGS step
   12    -887.4567353186      8.01e-07   Normal BFGS step
   13    -887.4567353186      8.30e-07   Normal BFGS step
   14    -887.4567353186      3.69e-07   Normal BFGS step
   15    -887.4567353186      3.30e-07   Normal BFGS step
   16    -887.4567353186      3.24e-07   Normal BFGS step
   17    -887.4567353186      2.59e-07   Normal BFGS step
   18    -887.4567353186      2.27e-07   Normal BFGS step
   19    -887.4567353186      1.33e-07   Normal BFGS step
   20    -887.4567353186      1.25e-07   Normal BFGS step
   21    -887.4567353186      7.42e-08   Normal BFGS step
   22    -887.4567353186      2.75e-08   Normal BFGS step
   23    -887.4567353186      2.35e-08   Normal BFGS step
   24    -887.4567353186      1.27e-08   Normal BFGS step
   25    -887.4567353186      8.53e-09  Convergence criterion met
 ---------------------------------------
 SCF time:   CPU 1428.12s  wall 22.00s 
<S^2> =          0.286546459
 SCF   energy in the final basis set =     -887.4567353186
 Total energy in the final basis set =     -887.4567353186
 
 --------------------------------------------------------------
 
                    Orbital Energies (a.u.)
 --------------------------------------------------------------
 
 Alpha MOs
 -- Occupied --
-19.5445 -19.5444 -14.7678 -14.7678 -14.7672 -14.7671 -10.6487 -10.6478
-10.4908  -5.0381  -5.0369  -3.3346  -3.3324  -3.3306  -3.3284  -3.3045
 -3.3038  -1.3588  -1.3562  -1.3365  -1.2852  -1.2781  -1.2773  -1.0612
 -1.0604  -1.0240  -0.9411  -0.9406  -0.9178  -0.9173  -0.8890  -0.8886
 -0.8410  -0.8404  -0.8298  -0.8185  -0.8142  -0.7957  -0.7792  -0.7764
 -0.7739  -0.7692  -0.7624  -0.7617  -0.7598  -0.7533  -0.7252  -0.7246
 -0.7159  -0.7117  -0.7094  -0.6990  -0.6911  -0.6851  -0.6616  -0.6522
 -0.6344
 -- Virtual --
 -0.3447  -0.3317  -0.1939  -0.1807  -0.1595  -0.1587  -0.1470  -0.1438
 -0.1378  -0.1349  -0.1303  -0.1222  -0.1154  -0.1040  -0.0998  -0.0966
 -0.0921  -0.0903  -0.0820  -0.0742  -0.0704  -0.0675  -0.0667  -0.0508
 -0.0485  -0.0467  -0.0449  -0.0385  -0.0351  -0.0300  -0.0263  -0.0219
 -0.0211  -0.0163  -0.0152  -0.0129  -0.0067  -0.0058  -0.0005   0.0018
  0.0188   0.0236   0.0309   0.0460   0.0535   0.0574   0.0614   0.0639
  0.0658   0.0716   0.0739   0.0769   0.0794   0.0906   0.0929   0.0973
  0.1036   0.1047   0.1083   0.1180   0.1182   0.1196   0.1271   0.1412
  0.1421   0.1468   0.1706   0.1728   0.1790   0.1984   0.2089   0.2157
  0.2340   0.2366   0.2481   0.2529   0.2692   0.2816   0.2868   0.2893
  0.3011   0.3105   0.3256   0.3283   0.3363   0.3451   0.3518   0.3548
  0.3596   0.3701   0.3743   0.3776   0.3779   0.4050   0.4118   0.4281
  0.4408   0.4557   0.4593   0.4720   0.4791   0.4893   0.5005   0.5150
  0.5250   0.5273   0.5426   0.5533   0.5602   0.5762   0.5995   0.6016
  0.6099   0.6147   0.6179   0.6252   0.6773   0.7200   0.7407   0.7447
  0.7579   0.7824   0.8112   0.8615   0.8709   0.8953   0.8974   0.9269
  0.9822   0.9855   1.0056   1.0064   1.0528   1.0717   1.0754   1.1078
  1.1368   1.1386   1.1570   1.1696   1.1741   1.1831   1.1842   1.1967
  1.2210   1.2381   1.2737   1.3176   1.3442   1.3514   1.3654   1.3775
  1.3875   1.4510   1.4636   1.4881   1.4908   1.4992   1.5705   1.5863
  1.5884   1.5945   1.6927   1.7953   1.8156   1.8273   1.8293   1.8445
  1.8464   1.8586   1.8824   1.9461   1.9507   1.9623   1.9809   1.9884
  2.1316   2.1550   2.1763   2.2282   2.2333   2.2964   2.3052   2.3092
  2.3325   2.3332   2.3596   2.3679   2.4020   2.4155   2.4624   2.4777
  2.4824   2.4839   2.5564   2.5688   2.6079   2.6147   2.6433   2.6544
  2.6719   2.6774   2.7028   2.7041   2.7185   2.7476   2.7795   2.7985
  2.8148   2.8297   2.8361   2.9432   2.9777   2.9960   2.9981   3.0226
  3.0360   3.0908   3.1142   3.1269   3.1765   3.1996   3.2211   3.2224
  3.5437   3.6239   3.8185   3.8282   3.8634   3.8804   3.9398   3.9648
  3.9877   4.0201   4.3410   4.3668   4.4177   4.4255   4.8520   4.8782
  4.8955   5.0625   5.0735   5.1150  23.3834  23.4333  23.4544  35.2979
 35.3046  35.3152  35.3208  49.7749  49.8300  57.1971  57.2543  57.3690
 57.4051  57.4696  57.5265  78.6461  78.7484
 
 Beta MOs
 -- Occupied --
-19.5360 -19.5360 -14.7688 -14.7688 -14.7680 -14.7679 -10.6486 -10.6478
-10.4908  -5.0577  -5.0563  -3.3615  -3.3599  -3.3573  -3.3559  -3.3121
 -3.3104  -1.3589  -1.3577  -1.3124  -1.2802  -1.2791  -1.2577  -1.0618
 -1.0609  -1.0240  -0.9418  -0.9413  -0.9197  -0.9185  -0.8899  -0.8896
 -0.8522  -0.8426  -0.8413  -0.8193  -0.8133  -0.8128  -0.8005  -0.7807
 -0.7799  -0.7746  -0.7691  -0.7687  -0.7620  -0.7572  -0.7296  -0.7213
 -0.7204  -0.7119  -0.7092  -0.6949  -0.6715  -0.6608  -0.6560  -0.6465
 -0.6249
 -- Virtual --
 -0.3718  -0.3419  -0.1941  -0.1808  -0.1590  -0.1581  -0.1475  -0.1439
 -0.1377  -0.1349  -0.1300  -0.1222  -0.1151  -0.1037  -0.0999  -0.0962
 -0.0922  -0.0903  -0.0823  -0.0743  -0.0708  -0.0672  -0.0656  -0.0507
 -0.0481  -0.0465  -0.0449  -0.0386  -0.0352  -0.0301  -0.0263  -0.0220
 -0.0214  -0.0165  -0.0155  -0.0129  -0.0069  -0.0058  -0.0005   0.0019
  0.0191   0.0233   0.0313   0.0458   0.0538   0.0584   0.0618   0.0638
  0.0658   0.0715   0.0739   0.0769   0.0794   0.0910   0.0932   0.0969
  0.1035   0.1048   0.1080   0.1180   0.1196   0.1200   0.1271   0.1417
  0.1432   0.1467   0.1711   0.1732   0.1798   0.1988   0.2089   0.2160
  0.2346   0.2378   0.2488   0.2523   0.2693   0.2815   0.2862   0.2891
  0.3011   0.3102   0.3254   0.3284   0.3361   0.3450   0.3523   0.3564
  0.3594   0.3710   0.3751   0.3775   0.3803   0.4050   0.4126   0.4287
  0.4406   0.4560   0.4589   0.4719   0.4787   0.4893   0.5005   0.5149
  0.5249   0.5271   0.5426   0.5529   0.5601   0.5764   0.5990   0.6022
  0.6094   0.6141   0.6180   0.6245   0.6770   0.7188   0.7400   0.7441
  0.7571   0.7826   0.8110   0.8620   0.8717   0.8963   0.9014   0.9322
  0.9847   0.9952   1.0051   1.0114   1.0565   1.0711   1.0751   1.1062
  1.1357   1.1388   1.1572   1.1674   1.1739   1.1825   1.1842   1.1992
  1.2192   1.2380   1.2735   1.3149   1.3454   1.3525   1.3640   1.3775
  1.3876   1.4510   1.4642   1.4879   1.4913   1.4991   1.5703   1.5857
  1.5923   1.5942   1.6998   1.7948   1.8138   1.8259   1.8277   1.8433
  1.8456   1.8567   1.8810   1.9450   1.9496   1.9615   1.9800   1.9891
  2.1321   2.1544   2.1753   2.2267   2.2321   2.2968   2.3053   2.3092
  2.3322   2.3329   2.3595   2.3675   2.4018   2.4153   2.4622   2.4746
  2.4835   2.4847   2.5555   2.5680   2.6139   2.6150   2.6459   2.6610
  2.6722   2.6832   2.7044   2.7164   2.7288   2.7611   2.7801   2.8028
  2.8195   2.8501   2.8567   2.9424   2.9779   2.9960   2.9985   3.0236
  3.0460   3.0958   3.1153   3.1266   3.1756   3.1989   3.2219   3.2394
  3.5401   3.6220   3.8162   3.8260   3.8624   3.8795   3.9373   3.9638
  3.9866   4.0190   4.3401   4.3659   4.4167   4.4247   4.8620   4.8880
  4.9284   5.0834   5.1033   5.1339  23.3834  23.4334  23.4545  35.2970
 35.3037  35.3144  35.3199  49.7829  49.8381  57.1943  57.2518  57.3108
 57.3464  57.4111  57.4678  78.6104  78.7141
 --------------------------------------------------------------
 
          Ground-State Mulliken Net Atomic Charges

     Atom                 Charge (a.u.)    Spin (a.u.)
  --------------------------------------------------------
      1 Cu                    0.353128      -0.320807
      2 Cu                    0.227973      -0.282135
      3 O                     0.060170       0.375392
      4 O                     0.063981       0.372766
      5 N                    -0.642536      -0.036214
      6 N                    -0.643662      -0.036117
      7 N                    -0.674030      -0.043096
      8 N                    -0.675436      -0.043201
      9 H                     0.479833       0.000422
     10 H                     0.492257       0.000564
     11 H                     0.485629       0.000699
     12 H                     0.485719       0.000690
     13 H                     0.486317       0.000683
     14 H                     0.485966       0.000704
     15 H                     0.490707       0.000575
     16 H                     0.480376       0.000408
     17 C                    -0.715093       0.003321
     18 C                    -0.805249       0.005621
     19 H                     0.361186       0.000018
     20 H                     0.368772       0.000046
     21 H                     0.362704       0.000044
     22 H                     0.363235       0.000027
     23 C                    -1.026909      -0.000492
     24 H                     0.272372       0.000018
     25 H                     0.246765       0.000031
     26 H                     0.342284       0.000024
     27 H                     0.273540       0.000010
  --------------------------------------------------------
  Sum of atomic charges =     2.000000
  Sum of spin   charges =     0.000000

 -----------------------------------------------------------------
                    Cartesian Multipole Moments
 -----------------------------------------------------------------
    Charge (ESU x 10^10)
                 9.6064
    Dipole Moment (Debye)
         X       1.4842      Y       1.2634      Z      -0.1087
       Tot       1.9521
    Quadrupole Moments (Debye-Ang)
        XX      44.1978     XY      -6.9488     YY     -62.8444
        XZ       0.3675     YZ       0.1635     ZZ     -58.8301
    Octopole Moments (Debye-Ang^2)
       XXX      79.9747    XXY      28.6125    XYY      -6.9998
       YYY       6.5605    XXZ      -1.9090    XYZ       0.8214
       YYZ       1.1012    XZZ       8.9206    YZZ      11.2306
       ZZZ      -1.7546
    Hexadecapole Moments (Debye-Ang^3)
      XXXX   -1430.7399   XXXY    -116.1964   XXYY    -440.0383
      XYYY     -25.3207   YYYY    -402.0687   XXXZ       6.2828
      XXYZ       5.4509   XYYZ      -2.0476   YYYZ       2.9613
      XXZZ    -344.2879   XYZZ     -30.0060   YYZZ    -121.0142
      XZZZ       5.4722   YZZZ       4.3663   ZZZZ    -305.8763
 -----------------------------------------------------------------
 Calculating analytic gradient of the SCF energy
 Gradient of SCF Energy
            1           2           3           4           5           6
    1   0.0002154  -0.0000414  -0.0001127  -0.0000970   0.0000567   0.0000518
    2  -0.0000965   0.0000953   0.0000459  -0.0000114  -0.0000111  -0.0000215
    3   0.0000422  -0.0000709  -0.0000134   0.0000118  -0.0000529   0.0000472
            7           8           9          10          11          12
    1  -0.0001152  -0.0001017  -0.0000146   0.0000584   0.0000213   0.0000253
    2   0.0000176  -0.0000105   0.0000095   0.0000039   0.0000152  -0.0000108
    3  -0.0000288   0.0000383  -0.0000140  -0.0000200   0.0000150   0.0000012
           13          14          15          16          17          18
    1   0.0000216   0.0000319  -0.0000036  -0.0000075  -0.0000108   0.0000273
    2   0.0000005   0.0000017   0.0000485  -0.0000042  -0.0000327  -0.0000042
    3   0.0000084   0.0000023   0.0000258  -0.0000132   0.0000028   0.0000037
           19          20          21          22          23          24
    1   0.0000155  -0.0000400  -0.0000024  -0.0000038   0.0000068   0.0000223
    2   0.0000099   0.0000526  -0.0000040   0.0000001  -0.0000035  -0.0000188
    3  -0.0000221  -0.0000084   0.0000126   0.0000038   0.0000120  -0.0000125
           25          26          27
    1   0.0000219  -0.0000043  -0.0000212
    2  -0.0000618   0.0000029  -0.0000127
    3   0.0000136   0.0000214  -0.0000059
 Max gradient component =       2.154E-04
 RMS gradient           =       4.457E-05
 Gradient time:  CPU 142.95 s  wall 2.70 s

     Step 1	:
        Energy is -887.4567353186
                            Maximum         Tolerance       Converged?
         Gradient           8.41525210e-05	3.00000000e-04	true
         Displacement       3.94207715e-04	1.20000000e-03	true
         Energy change      1.58137254e-07	1.00000000e-06	true

	 Optimization Converged in 1 cycles

 *****************************************************
             End of BFGS Algorithm
 *****************************************************
		----------------------------------
		   Verification of Optimization
		----------------------------------

 Eigenvalues of Hessian in Optimization Verification
   0.03285133   0.10001816   0.10051530   0.10411584   0.10874226
   0.10886346   0.11197263   0.11232946   0.11246772   0.11707339
   0.11812873   0.11905492   0.12011171   0.12271321   0.12342980
   0.12635669   0.12722743   0.12802152   0.12834898   0.12956889
   0.13007632   0.13122502   0.13368542   0.13509154   0.13712658
   0.14043113   0.14133947   0.14299284   0.14534726   0.14582131
   0.14806585   0.14940401   0.15260350   0.16098439   0.16441565
   0.17504936   0.18717552   0.19745209   0.21210808   0.22476613
   0.27026230   0.27319301   0.28440130   0.29670641   0.32800959
   0.36728227   0.36962482   0.40397857   0.41441349   0.41755343
   0.43210719   0.44354503   0.44624543   0.44864543   0.46919656
   0.47070652   0.47768283   0.48022766   0.48895231   0.49268154
   0.49998750   0.50000000   0.50000000   0.50004590   0.50560459
   0.50686580   0.50898657   0.51643369   0.51933634   0.52002446
   0.52063019   0.52167059   0.52271841   0.52527432   0.53489985


 Found a minimum
		---------------------------------
		       End of Verification
		---------------------------------

 Final energy is -887.456735318583

	******************************
	**  OPTIMIZATION CONVERGED  **
	******************************
 ----------------------------------------------------------------
             Standard Nuclear Orientation (Angstroms)
    I     Atom           X                Y                Z
 ----------------------------------------------------------------
    1      Cu      1.5845322447     0.0960426687    -0.0097425943
    2      Cu     -1.2333509841     0.3294529450    -0.0189631990
    3      O       0.1763903899     0.2709399988     1.0885589736
    4      O       0.1718433578     0.1487922535    -1.1162357778
    5      N      -2.8227771386     0.5485002444     1.1213168626
    6      N      -2.8157594498     0.4145196156    -1.1858846730
    7      N       3.1813022198     0.0411638536     1.1532231916
    8      N       3.1841000292    -0.0743921063    -1.1573940477
    9      H      -2.8383422819     1.3930442912     1.6865899088
   10      H      -2.9700395044    -0.4450385982    -1.7060039755
   11      H       3.2215676502    -0.7622544287     1.7747477083
   12      H       3.3224258789     0.6953704556    -1.8067577067
   13      H       3.3166481302     0.8726802989     1.7220996333
   14      H       3.2262298244    -0.9361244725    -1.6950941919
   15      H      -2.9851295364    -0.2425002268     1.7384424501
   16      H      -2.8287210595     1.1858980156    -1.8475002040
   17      C      -3.7439734225     0.5901387781    -0.0417866341
   18      C       4.1126863888    -0.0510018725     0.0009624591
   19      H      -4.2569811524     1.5475001714    -0.0984450034
   20      H      -4.4775894848    -0.2111912497     0.0039137151
   21      H       4.7122445565    -0.9573709009     0.0463163426
   22      H       4.7677589932     0.8161840074    -0.0414097486
   23      C      -2.0707137777    -2.7130324279     0.1664075331
   24      H      -1.5806263129    -2.3095001446     1.0558054903
   25      H      -3.1165353551    -2.3971311218     0.1194967149
   26      H      -2.0562494600    -3.8001691268     0.2314365513
   27      H      -1.5322307435    -2.4149509207    -0.7366497784
 ----------------------------------------------------------------
 Nuclear Repulsion Energy =        1090.44298956 hartrees
 There are       57 alpha and       57 beta electrons

Z-matrix Print:
$molecule
2 1
Cu
O  1 1.791987
O  1 1.793711 2 76.024493
Cu 3 1.794358 1 104.005803 2 0.198788 0
N  1 1.967983 2 105.771385 3 179.544041 0
H  5 1.016331 1 115.408248 2 -60.449610 0
H  5 1.016448 1 112.886551 2 64.243671 0
C  5 1.483706 1 92.918737 2 -178.629630 0
H  8 1.087387 5 111.546191 1 -120.181441 0
H  8 1.087625 5 111.045084 1 117.467171 0
N  8 1.484300 5 102.278042 1 -0.994869 0
H  11 1.016309 8 113.485203 5 -115.889139 0
H  11 1.016381 8 113.765665 5 120.293549 0
N  4 1.976049 3 177.625790 1 163.792606 0
H  14 1.016534 4 114.572347 3 -103.031285 0
H  14 1.016602 4 114.446493 3 132.339850 0
C  14 1.484793 4 92.968828 3 14.717814 0
H  17 1.087624 14 111.029105 4 -116.974647 0
H  17 1.087673 14 111.354769 4 120.710892 0
N  17 1.484478 14 102.365577 4 1.555809 0
H  20 1.016542 17 113.680054 14 -119.959467 0
H  20 1.016560 17 113.618922 14 116.798556 0
H  9 2.577627 8 105.699790 5 56.400325 0
C  23 1.093498 9 138.756958 8 2.580176 0
H  24 1.089176 23 107.674691 9 178.283939 0
H  24 1.092727 23 110.926988 9 59.941725 0
H  24 1.092854 23 110.916221 9 -63.307498 0
$end

 -----------------------------------------------------------------------
                  END OF GEOMETRY OPTIMIZER USING LIBOPT3               
 -----------------------------------------------------------------------
 Total job time:  85.90s(wall), 4523.20s(cpu) 
 Sun Sep 10 00:14:03 2023

        *************************************************************
        *                                                           *
        *  Thank you very much for using Q-Chem.  Have a nice day.  *
        *                                                           *
        *************************************************************