
Running Job 1 of 1 e_0.87_0.0_0.inp
qchem e_0.87_0.0_0.inp_98890.0 /tmp/SLURM_10836986/scratch/ 0
/spack/apps/linux-centos7-x86_64/gcc-8.3.0/qchem-5.4.2/openmp/exe/qcprog.exe_s e_0.87_0.0_0.inp_98890.0 /tmp/SLURM_10836986/scratch/
                  Welcome to Q-Chem
     A Quantum Leap Into The Future Of Chemistry


 Q-Chem 5.4, Q-Chem, Inc., Pleasanton, CA (2021)

 License issued to: University of Southern California

 E. Epifanovsky,  A. T. B. Gilbert,  Xintian Feng,  Joonho Lee,  Yuezhi Mao,  
 N. Mardirossian,  P. Pokhilko,  A. White,  M. Wormit,  M. P. Coons,  
 A. L. Dempwolff,  Zhengting Gan,  D. Hait,  P. R. Horn,  L. D. Jacobson,  
 I. Kaliman,  J. Kussmann,  A. W. Lange,  Ka Un Lao,  D. S. Levine,  Jie Liu,  
 S. C. McKenzie,  A. F. Morrison,  K. Nanda,  F. Plasser,  D. R. Rehn,  
 M. L. Vidal,  Zhi-Qiang You,  Ying Zhu,  B. Alam,  B. Albrecht,  
 A. Aldossary,  E. Alguire,  J. H. Andersen,  D. Barton,  K. Begam,  A. Behn,  
 Y. A. Bernard,  E. J. Berquist,  H. Burton,  A. Carreras,  K. Carter-Fenk,  
 Romit Chakraborty,  A. D. Chien,  K. D. Closser,  V. Cofer-Shabica,  
 S. Dasgupta,  Jia Deng,  M. de Wergifosse,  M. Diedenhofen,  Hainam Do,  
 S. Ehlert,  Po-Tung Fang,  S. Fatehi,  Qingguo Feng,  T. Friedhoff,  
 J. Gayvert,  Qinghui Ge,  G. Gidofalvi,  M. Goldey,  J. Gomes,  
 C. Gonzalez-Espinoza,  S. Gulania,  A. Gunina,  M. W. D. Hanson-Heine,  
 P. H. P. Harbach,  A. W. Hauser,  M. F. Herbst,  M. Hernandez Vera,  
 M. Hodecker,  Z. C. Holden,  S. Houck,  Xunkun Huang,  Kerwin Hui,  
 B. C. Huynh,  M. Ivanov,  Hyunjun Ji,  Hanjie Jiang,  B. Kaduk,  S. Kaehler,  
 K. Khistyaev,  Jaehoon Kim,  P. Klunzinger,  Z. Koczor-Benda,  
 Joong Hoon Koh,  D. Kosenkov,  L. Koulias,  T. Kowalczyk,  C. M. Krauter,  
 K. Kue,  A. Kunitsa,  T. Kus,  A. Landau,  K. V. Lawler,  D. Lefrancois,  
 S. Lehtola,  Rain Li,  Yi-Pei Li,  Jiashu Liang,  M. Liebenthal,  
 Hung-Hsuan Lin,  You-Sheng Lin,  Fenglai Liu,  Kuan-Yu Liu,  
 M. Loipersberger,  A. Luenser,  A. Manjanath,  P. Manohar,  E. Mansoor,  
 S. F. Manzer,  Shan-Ping Mao,  A. V. Marenich,  T. Markovich,  S. Mason,  
 S. A. Maurer,  P. F. McLaughlin,  M. F. S. J. Menger,  J.-M. Mewes,  
 S. A. Mewes,  P. Morgante,  J. W. Mullinax,  K. J. Oosterbaan,  G. Paran,  
 Alexander C. Paul,  Suranjan K. Paul,  F. Pavosevic,  Zheng Pei,  S. Prager,  
 E. I. Proynov,  E. Ramos,  B. Rana,  A. E. Rask,  A. Rettig,  R. M. Richard,  
 F. Rob,  E. Rossomme,  T. Scheele,  M. Scheurer,  M. Schneider,  
 N. Sergueev,  S. M. Sharada,  W. Skomorowski,  D. W. Small,  C. J. Stein,  
 Yu-Chuan Su,  E. J. Sundstrom,  Zhen Tao,  J. Thirman,  T. Tsuchimochi,  
 N. M. Tubman,  S. P. Veccham,  O. Vydrov,  J. Wenzel,  J. Witte,  A. Yamada,  
 Kun Yao,  S. Yeganeh,  S. R. Yost,  A. Zech,  Igor Ying Zhang,  Xing Zhang,  
 Yu Zhang,  D. Zuev,  A. Aspuru-Guzik,  A. T. Bell,  N. A. Besley,  
 K. B. Bravaya,  B. R. Brooks,  D. Casanova,  Jeng-Da Chai,  S. Coriani,  
 C. J. Cramer,  A. E. DePrince, III,  R. A. DiStasio Jr.,  A. Dreuw,  
 B. D. Dunietz,  T. R. Furlani,  W. A. Goddard III,  S. Grimme,  
 S. Hammes-Schiffer,  T. Head-Gordon,  W. J. Hehre,  Chao-Ping Hsu,  
 T.-C. Jagau,  Yousung Jung,  A. Klamt,  Jing Kong,  D. S. Lambrecht,  
 WanZhen Liang,  N. J. Mayhall,  C. W. McCurdy,  J. B. Neaton,  T. Neudecker,  
 C. Ochsenfeld,  J. A. Parkhill,  R. Peverati,  V. A. Rassolov,  Yihan Shao,  
 L. V. Slipchenko,  R. P. Steele,  J. E. Subotnik,  A. J. W. Thom,  
 A. Tkatchenko,  D. G. Truhlar,  T. Van Voorhis,  T. A. Wesolowski,  
 K. B. Whaley,  H. L. Woodcock III,  P. M. Zimmerman,  S. Faraji,  
 P. M. W. Gill,  M. Head-Gordon,  J. M. Herbert,  A. I. Krylov

 Additional authors since Version 5.4.0: 
 Chandrima Chakravarty,  L. Cunha,  R. Kang,  Yongbin Kim,  S. Kotaru,  
 Shaozhi Li,  Xiangyuan Li,  F. Matz,  A. Molle,  V. Parravicini,  
 Haisheng Ren,  Hengyuan Shen,  Yingli Su,  Hung-Yi Tsai,  C. Utku,  
 Fang Wang,  Jeff Yang,  F. Zeller

 Contributors to earlier versions of Q-Chem not listed above: 
 R. D. Adamson,  B. Austin,  R. Baer,  J. Baker,  G. J. O. Beran,  
 K. Brandhorst,  S. T. Brown,  E. F. C. Byrd,  Arup K. Chakraborty,  
 G. K. L. Chan,  Chun-Min Chang,  Yunqing Chen,  C.-L. Cheng,  
 Siu Hung Chien,  D. M. Chipman,  D. L. Crittenden,  H. Dachsel,  
 R. J. Doerksen,  A. D. Dutoi,  R. G. Edgar,  J. Fosso-Tande,  
 L. Fusti-Molnar,  D. Ghosh,  A. Ghysels,  A. Golubeva-Zadorozhnaya,  
 J. Gonthier,  M. S. Gordon,  S. R. Gwaltney,  G. Hawkins,  J. E. Herr,  
 A. Heyden,  S. Hirata,  E. G. Hohenstein,  G. Kedziora,  F. J. Keil,  
 C. Kelley,  Jihan Kim,  R. A. King,  R. Z. Khaliullin,  P. P. Korambath,  
 W. Kurlancheek,  A. Laurent,  A. M. Lee,  M. S. Lee,  S. V. Levchenko,  
 Ching Yeh Lin,  D. Liotard,  E. Livshits,  R. C. Lochan,  I. Lotan,  
 L. A. Martinez-Martinez,  P. E. Maslen,  N. Nair,  D. P. O'Neill,  
 D. Neuhauser,  E. Neuscamman,  C. M. Oana,  R. Olivares-Amaya,  R. Olson,  
 T. M. Perrine,  B. Peters,  P. A. Pieniazek,  A. Prociuk,  Y. M. Rhee,  
 J. Ritchie,  M. A. Rohrdanz,  E. Rosta,  N. J. Russ,  H. F. Schaefer III,  
 M. W. Schmidt,  N. E. Schultz,  S. Sharma,  N. Shenvi,  C. D. Sherrill,  
 A. C. Simmonett,  A. Sodt,  T. Stein,  D. Stuck,  K. S. Thanthiriwatte,  
 V. Vanovschi,  L. Vogt,  Tao Wang,  A. Warshel,  M. A. Watson,  
 C. F. Williams,  Q. Wu,  X. Xu,  Jun Yang,  W. Zhang,  Yan Zhao

   Please cite Q-Chem as follows:
  "Software for the frontiers of quantum chemistry:
   An overview of developments in the Q-Chem 5 package"
   J. Chem. Phys. 155, 084801 (2021)
   https://doi.org/10.1063/5.0055522 (open access)

 Q-Chem 5.4.2 for Intel X86 EM64T Linux

 Parts of Q-Chem use Armadillo 9.900.5 (Nocturnal Misbehaviour).
 http://arma.sourceforge.net/

 Q-Chem begins on Wed Sep 14 02:24:20 2022  

 Host: 
0

     Scratch files written to /tmp/SLURM_10836986/scratch//
 Dec1321 |scratch|qcdevops|jenkins|workspace|build_RNUM 6013   
 Processing $rem in /spack/apps/linux-centos7-x86_64/gcc-8.3.0/qchem-5.4.2/openmp/config/preferences:
 Processing $rem in /home1/patraa/.qchemrc:
 Symmetry turned off for PCM/SM12/SMD calculation

 Checking the input file for inconsistencies... 	...done.

--------------------------------------------------------------
User input:
--------------------------------------------------------------
$molecule
0 1
C     -0.7522871938      4.9132714042      2.1288396993
C     -0.6243714806      3.5614984031      1.4191018912
N      0.3543851663      2.6913301697      2.0292001119
H     -1.0144597087      4.7897372791      3.1810500351
H      0.1696425671      5.4914357196      2.0660015801
H     -1.5827152381      3.0427182420      1.4320106212
H     -1.5503048886      5.4749255708      1.6428644589
C      0.1175980982      2.1062514747      3.3398342441
H      0.6044414267      2.7699502766      4.0671981069
H      0.6668262676      1.1635064276      3.3502739599
H     -0.3459039147      3.6912498931      0.3740541263
C     -1.3367800103      1.8758849033      3.7013167829
H     -1.8321705289      1.2515469479      2.9581672745
H     -1.3691106111      1.3595288093      4.6618298737
H     -1.8989735953      2.8051566136      3.8020771096
C      1.6921320494      2.6268346710      1.5091423392
H      2.2935762876      2.0293650443      2.1928187470
H      1.6316144363      2.0594395379      0.5692467946
C      2.3498006085      3.9785203075      1.2443230457
H      3.3532284691      3.7900467838      0.8623187954
H      1.8090505629      4.5590855479      0.4956380480
H      2.4329512706      4.5664876549      2.1608039209
C      3.2836201926     -0.3587054710     -0.0520825242
C      4.1305492433     -0.2896278851     -1.1800643832
H      3.7064484019     -0.0925155305     -2.1580758983
C      5.4950493274     -0.5046068845     -1.0782684414
H      6.1074967150     -0.4534902723     -1.9727555455
C      6.0832124804     -0.8010539877      0.1501181132
H      7.1508936674     -0.9711851360      0.2265034736
C      5.2693225254     -0.8773661999      1.2764682742
H      5.7053119647     -1.1016543931      2.2448777733
C      3.9032283247     -0.6584405698      1.1813358071
H      3.3048792629     -0.6990268601      2.0847839057
C      1.8536240004     -0.1024419070     -0.1367960705
C      1.2723554437      0.6594197767     -1.1961142437
H      1.8949467994      0.9855065930     -2.0227642334
C     -0.0422225944      1.0466238974     -1.1853856327
H     -0.4093797396      1.6182499592     -2.0298481476
C     -0.9408536607      0.6791110075     -0.1297509796
C     -0.3795772194     -0.1925445636      0.8600919935
H     -1.0110805583     -0.5947230872      1.6444093487
C      0.9441510587     -0.5521276361      0.8598564691
H      1.2929670422     -1.2246400475      1.6370129446
C     -2.2992849671      1.1524018587     -0.0711151578
C     -3.2569601966      0.6196655164      0.8352311556
H     -3.0017838153     -0.2396370041      1.4448167881
C     -4.5324134299      1.1439434314      0.9457071197
H     -5.2270212873      0.6957526004      1.6495862270
C     -4.9415373891      2.2227384551      0.1601593278
H     -5.9416719808      2.6298909963      0.2491711331
C     -4.0323805195      2.7497878729     -0.7568955349
H     -4.3256082929      3.5814202632     -1.3904272296
C     -2.7534750464      2.2345550506     -0.8763421171
H     -2.0804737934      2.6939494750     -1.5906512808
$end

$rem
basis = 6-311g**
cis_state_deriv = 1
job_type = optimization
method = wb97xd
geom_opt_dmax = 20
geom_opt_tol_gradient = 20
geom_opt_max_cycles = 100
max_cis_cycles = 100
cis_n_roots = 10
cis_singlets = 1
cis_triplets = 0
rpa = 2
mem_static = 2000
mem_total = 16000
solvent_method = pcm
scf_convergence = 8
symmetry = false
symmetry_ignore = 1
thresh = 14
$end

$pcm
heavypoints 590
method swig
radii bondi
solver inversion
theory cpcm
$end

$solvent
dielectric 2.03
opticaldielectric 2.01
$end
--------------------------------------------------------------
 ----------------------------------------------------------------
             Standard Nuclear Orientation (Angstroms)
    I     Atom           X                Y                Z
 ----------------------------------------------------------------
    1      C      -0.7522871938     4.9132714042     2.1288396993
    2      C      -0.6243714806     3.5614984031     1.4191018912
    3      N       0.3543851663     2.6913301697     2.0292001119
    4      H      -1.0144597087     4.7897372791     3.1810500351
    5      H       0.1696425671     5.4914357196     2.0660015801
    6      H      -1.5827152381     3.0427182420     1.4320106212
    7      H      -1.5503048886     5.4749255708     1.6428644589
    8      C       0.1175980982     2.1062514747     3.3398342441
    9      H       0.6044414267     2.7699502766     4.0671981069
   10      H       0.6668262676     1.1635064276     3.3502739599
   11      H      -0.3459039147     3.6912498931     0.3740541263
   12      C      -1.3367800103     1.8758849033     3.7013167829
   13      H      -1.8321705289     1.2515469479     2.9581672745
   14      H      -1.3691106111     1.3595288093     4.6618298737
   15      H      -1.8989735953     2.8051566136     3.8020771096
   16      C       1.6921320494     2.6268346710     1.5091423392
   17      H       2.2935762876     2.0293650443     2.1928187470
   18      H       1.6316144363     2.0594395379     0.5692467946
   19      C       2.3498006085     3.9785203075     1.2443230457
   20      H       3.3532284691     3.7900467838     0.8623187954
   21      H       1.8090505629     4.5590855479     0.4956380480
   22      H       2.4329512706     4.5664876549     2.1608039209
   23      C       3.2836201926    -0.3587054710    -0.0520825242
   24      C       4.1305492433    -0.2896278851    -1.1800643832
   25      H       3.7064484019    -0.0925155305    -2.1580758983
   26      C       5.4950493274    -0.5046068845    -1.0782684414
   27      H       6.1074967150    -0.4534902723    -1.9727555455
   28      C       6.0832124804    -0.8010539877     0.1501181132
   29      H       7.1508936674    -0.9711851360     0.2265034736
   30      C       5.2693225254    -0.8773661999     1.2764682742
   31      H       5.7053119647    -1.1016543931     2.2448777733
   32      C       3.9032283247    -0.6584405698     1.1813358071
   33      H       3.3048792629    -0.6990268601     2.0847839057
   34      C       1.8536240004    -0.1024419070    -0.1367960705
   35      C       1.2723554437     0.6594197767    -1.1961142437
   36      H       1.8949467994     0.9855065930    -2.0227642334
   37      C      -0.0422225944     1.0466238974    -1.1853856327
   38      H      -0.4093797396     1.6182499592    -2.0298481476
   39      C      -0.9408536607     0.6791110075    -0.1297509796
   40      C      -0.3795772194    -0.1925445636     0.8600919935
   41      H      -1.0110805583    -0.5947230872     1.6444093487
   42      C       0.9441510587    -0.5521276361     0.8598564691
   43      H       1.2929670422    -1.2246400475     1.6370129446
   44      C      -2.2992849671     1.1524018587    -0.0711151578
   45      C      -3.2569601966     0.6196655164     0.8352311556
   46      H      -3.0017838153    -0.2396370041     1.4448167881
   47      C      -4.5324134299     1.1439434314     0.9457071197
   48      H      -5.2270212873     0.6957526004     1.6495862270
   49      C      -4.9415373891     2.2227384551     0.1601593278
   50      H      -5.9416719808     2.6298909963     0.2491711331
   51      C      -4.0323805195     2.7497878729    -0.7568955349
   52      H      -4.3256082929     3.5814202632    -1.3904272296
   53      C      -2.7534750464     2.2345550506    -0.8763421171
   54      H      -2.0804737934     2.6939494750    -1.5906512808
 ----------------------------------------------------------------
 Nuclear Repulsion Energy =        2175.20553275 hartrees
 There are       90 alpha and       90 beta electrons
 Requested basis set is 6-311G(d,p)
 There are 241 shells and 624 basis functions

 Total QAlloc Memory Limit  16000 MB
 Mega-Array Size      1956 MB
 MEM_STATIC part      2000 MB
 Discretize the solute cavity surface with Lebedev spheres
	Using 110 Lebedev grid points for each H atom
	Using 590 Lebedev grid points for other atoms
	Atomic van der Waals radii will be scaled by 1.20
 Remove points where switching function is < 1.0e-08
 Keep 5916 surface tesserae and discard 12024 interior tesserae
 Molecular Surface Area = 399.760 Angst**2
 A cutoff of  1.0D-14 yielded  19825 shell pairs
 There are    133906 function pairs (    144502 Cartesian)
 Smallest overlap matrix eigenvalue = 1.22E-04

 Scale SEOQF with 1.000000e-02/1.000000e-02/1.000000e-01

 Standard Electronic Orientation quadrupole field applied
 Nucleus-field energy     =    -0.0000000373 hartrees
 Guess from superposition of atomic densities
 Warning:  Energy on first SCF cycle will be non-variational
 SAD guess density has 180.000000 electrons

 -----------------------------------------------------------------------
  General SCF calculation program by
  Eric Jon Sundstrom, Paul Horn, Yuezhi Mao, Dmitri Zuev, Alec White,
  David Stuck, Shaama M.S., Shane Yost, Joonho Lee, David Small,
  Daniel Levine, Susi Lehtola, Hugh Burton, Evgeny Epifanovsky,
  Bang C. Huynh
 -----------------------------------------------------------------------
 Exchange:     0.2220 Hartree-Fock + 1.0000 wB97X-D + LR-HF
 Correlation:  1.0000 wB97X-D
 Using SG-2 standard quadrature grid
 Dispersion:   Grimme D
 using 24 threads for integral computing
 -------------------------------------------------------
 OpenMP Integral computing Module                
 Release: version 1.0, May 2013, Q-Chem Inc. Pittsburgh 
 -------------------------------------------------------
 A restricted SCF calculation will be
 performed using DIIS
 SCF converges when DIIS error is below 1.0e-08
 ---------------------------------------
  Cycle       Energy         DIIS error
 ---------------------------------------
    1    -994.6599741846      2.78e-02  
    2    -986.4551574390      1.93e-03  
    3    -986.5696530759      1.37e-03  
    4    -986.6554088559      2.15e-04  
    5    -986.6570452396      1.23e-04  
    6    -986.6577122930      1.85e-05  
    7    -986.6577307314      7.38e-06  
    8    -986.6577340741      2.94e-06  
    9    -986.6577347848      9.68e-07  
   10    -986.6577348723      2.69e-07  
   11    -986.6577348841      1.09e-07  
   12    -986.6577348851      3.73e-08  
   13    -986.6577348853      1.24e-08  
   14    -986.6577348853      5.31e-09  Convergence criterion met
 ---------------------------------------
 SCF time:   CPU 6764.56s  wall 473.00s 

************** Final PCM Free Energy Summary **************
 G_electrostatic  =      -0.00687657 hartree =      -4.31511583 kcal/mol
 G_cavitation     =       0.00000000 hartree =       0.00000000 kcal/mol
 G_dispersion     =       0.00000000 hartree =       0.00000000 kcal/mol
 G_repulsion      =       0.00000000 hartree =       0.00000000 kcal/mol
 --------------------------------------------------
 Non-electrostatic Free Energy =       0.00000000 hartree =       0.00000000 kcal/mol
 Total                         =      -0.00687657 hartree =      -4.31511583 kcal/mol
 --------------------------------------------------
 SCF Energy (H0 + V/2)                       =    -986.65773489 
 Solute Internal Energy (H0)                 =    -986.65085831 
 Total Free Energy (H0 + V/2 + non-elec)     =    -986.65773489 hartree
                                             = -619137.07327594 kcal/mol
***********************************************************

 SCF   energy in the final basis set =     -986.6577348853
 Total energy in the final basis set =     -986.6577348853
 
 MAX_CIS_SUBSPACE fits in available memory
 Adding PCM contribution to the XC response (LR-PCM)
 CIS energy converged when residual is below 10e- 6

 Direct TDDFT calculation will be performed
 Exchange:     0.2220 Hartree-Fock + 1.0000 wB97X-D + LR-HF
 Correlation:  1.0000 wB97X-D
 Using SG-2 standard quadrature grid
 Dispersion:   Grimme D
 ---------------------------------------------------
 Iter    Rts Conv    Rts Left    Ttl Dev     Max Dev
 ---------------------------------------------------
   1         0          10      0.004217    0.000766
   2         0          10      0.001509    0.000206
   3         0          10      0.001157    0.000187
   4         0          10      0.000943    0.000183
   5         0          10      0.000589    0.000123
   6         0          10      0.000396    0.000086
   7         0          10      0.000176    0.000039
   8         0          10      0.000109    0.000026
   9         2           8      0.000077    0.000032
  10         4           6      0.000063    0.000041
  11         5           5      0.000059    0.000045
  12         7           3      0.000026    0.000019
  13         8           2      0.000017    0.000011
  14         9           1      0.000010    0.000005
  15         9           1      0.000008    0.000003
  16         9           1      0.000006    0.000001
  17        10           0      0.000006    0.000001    Roots Converged
 ---------------------------------------------------
 
 ---------------------------------------------------
             TDDFT Excitation Energies              
 ---------------------------------------------------

 Excited state   1: excitation energy (eV) =    2.8880
 Total energy for state  1:                  -986.55160190 au
    Multiplicity: Singlet 
    Trans. Mom.:  1.1807 X  -0.3753 Y   0.0375 Z
    Strength   :     0.1086979726
    X: D(   90) --> V(    1) amplitude =  0.9852

 Excited state   2: excitation energy (eV) =    3.9584
 Total energy for state  2:                  -986.51226530 au
    Multiplicity: Singlet 
    Trans. Mom.: -3.1961 X   0.8658 Y   0.0448 Z
    Strength   :     1.0635337317
    X: D(   89) --> V(    1) amplitude =  0.9633

 Excited state   3: excitation energy (eV) =    4.0588
 Total energy for state  3:                  -986.50857598 au
    Multiplicity: Singlet 
    Trans. Mom.: -0.5120 X   0.2360 Y   0.1161 Z
    Strength   :     0.0329454845
    X: D(   90) --> V(    2) amplitude =  0.8675
    X: D(   90) --> V(    5) amplitude = -0.3971

 Excited state   4: excitation energy (eV) =    4.7790
 Total energy for state  4:                  -986.48210859 au
    Multiplicity: Singlet 
    Trans. Mom.: -0.1076 X   0.0368 Y   0.1642 Z
    Strength   :     0.0046713189
    X: D(   85) --> V(    1) amplitude = -0.3021
    X: D(   87) --> V(    1) amplitude =  0.5082
    X: D(   89) --> V(    2) amplitude =  0.6521

 Excited state   5: excitation energy (eV) =    4.8744
 Total energy for state  5:                  -986.47860294 au
    Multiplicity: Singlet 
    Trans. Mom.: -0.2056 X   0.0191 Y  -0.1095 Z
    Strength   :     0.0065221590
    X: D(   85) --> V(    1) amplitude =  0.3386
    X: D(   86) --> V(    1) amplitude = -0.3317
    X: D(   89) --> V(    4) amplitude = -0.3040
    X: D(   90) --> V(    4) amplitude =  0.5378
    X: D(   90) --> V(    5) amplitude = -0.3897

 Excited state   6: excitation energy (eV) =    4.9049
 Total energy for state  6:                  -986.47748344 au
    Multiplicity: Singlet 
    Trans. Mom.:  0.0329 X  -0.0613 Y  -0.0720 Z
    Strength   :     0.0012046464
    X: D(   90) --> V(    3) amplitude =  0.9108

 Excited state   7: excitation energy (eV) =    5.0264
 Total energy for state  7:                  -986.47301693 au
    Multiplicity: Singlet 
    Trans. Mom.:  0.0208 X  -0.0626 Y   0.1612 Z
    Strength   :     0.0037371657
    X: D(   85) --> V(    1) amplitude = -0.4608
    X: D(   86) --> V(    1) amplitude = -0.3562
    X: D(   86) --> V(    3) amplitude = -0.2940
    X: D(   88) --> V(    4) amplitude = -0.2773
    X: D(   89) --> V(    4) amplitude = -0.3210
    X: D(   89) --> V(    5) amplitude = -0.2895
    X: D(   90) --> V(    4) amplitude =  0.2220
    X: D(   90) --> V(    5) amplitude =  0.3033

 Excited state   8: excitation energy (eV) =    5.2403
 Total energy for state  8:                  -986.46515631 au
    Multiplicity: Singlet 
    Trans. Mom.: -0.3029 X  -0.2408 Y   0.2039 Z
    Strength   :     0.0245658629
    X: D(   85) --> V(    1) amplitude = -0.3329
    X: D(   86) --> V(    1) amplitude =  0.3602
    X: D(   89) --> V(    4) amplitude =  0.2378
    X: D(   90) --> V(    4) amplitude =  0.5581
    X: D(   90) --> V(    5) amplitude = -0.4151

 Excited state   9: excitation energy (eV) =    5.3673
 Total energy for state  9:                  -986.46048998 au
    Multiplicity: Singlet 
    Trans. Mom.: -0.2509 X  -0.1492 Y  -0.0543 Z
    Strength   :     0.0115882752
    X: D(   88) --> V(    1) amplitude =  0.7281
    X: D(   89) --> V(    3) amplitude =  0.4858
    X: D(   90) --> V(    3) amplitude =  0.2784

 Excited state  10: excitation energy (eV) =    5.4768
 Total energy for state 10:                  -986.45646685 au
    Multiplicity: Singlet 
    Trans. Mom.:  0.0795 X   0.0817 Y  -0.1608 Z
    Strength   :     0.0052142440
    X: D(   87) --> V(    1) amplitude =  0.3073
    X: D(   90) --> V(    2) amplitude =  0.2393
    X: D(   90) --> V(    4) amplitude =  0.3684
    X: D(   90) --> V(    5) amplitude =  0.4341
    X: D(   90) --> V(    6) amplitude =  0.3712
    X: D(   90) --> V(    7) amplitude = -0.3112
    X: D(   90) --> V(   10) amplitude = -0.3056
 
 ---------------------------------------------------
 Calculating Relaxed Density
 ---------------------------------------------------
 Iter    Rts Conv    Rts Left    Ttl Dev     Max Dev
 ---------------------------------------------------
   1         0          10      0.000948    0.000163
   2         0          10      0.000313    0.000058
   3         0          10      0.000084    0.000014
   4         0          10      0.000026    0.000004
   5         7           3      0.000004    0.000001
   6        10           0      0.000000    0.000000    Roots Converged
 ---------------------------------------------------
  SETman timing summary (seconds)
  CPU time             30117.17s
  System time              0.08s
  Wall time             2296.43s
 
 --------------------------------------------------------------
 
                    Orbital Energies (a.u.)
 --------------------------------------------------------------
 
 Alpha MOs
 -- Occupied --
-14.3789 -10.3072 -10.3064 -10.3054 -10.3049 -10.2918 -10.2917 -10.2916
-10.2911 -10.2906 -10.2905 -10.2904 -10.2903 -10.2901 -10.2898 -10.2897
-10.2896 -10.2894 -10.2894 -10.2890 -10.2849 -10.2793 -10.2618 -10.2538
-10.2518  -1.0014  -0.9791  -0.9676  -0.9486  -0.8956  -0.8596  -0.8573
 -0.8529  -0.8511  -0.8456  -0.8424  -0.8086  -0.7955  -0.7416  -0.7239
 -0.7233  -0.7025  -0.6991  -0.6968  -0.6727  -0.6700  -0.6335  -0.6319
 -0.6140  -0.5764  -0.5745  -0.5716  -0.5665  -0.5483  -0.5397  -0.5375
 -0.5350  -0.5211  -0.5189  -0.5123  -0.5099  -0.5088  -0.5036  -0.4980
 -0.4876  -0.4864  -0.4794  -0.4696  -0.4660  -0.4655  -0.4607  -0.4484
 -0.4430  -0.4392  -0.4369  -0.4311  -0.4306  -0.4223  -0.4186  -0.4144
 -0.4050  -0.4003  -0.3983  -0.3765  -0.3398  -0.3362  -0.3340  -0.3323
 -0.2790  -0.2353
 -- Virtual --
 -0.0061   0.0453   0.0559   0.0582   0.0726   0.1098   0.1133   0.1228
  0.1304   0.1335   0.1412   0.1478   0.1563   0.1614   0.1724   0.1734
  0.1759   0.1817   0.1858   0.1909   0.1964   0.1971   0.2030   0.2077
  0.2129   0.2148   0.2315   0.2352   0.2390   0.2424   0.2441   0.2492
  0.2585   0.2627   0.2668   0.2691   0.2726   0.2843   0.2905   0.2922
  0.2957   0.3093   0.3102   0.3148   0.3203   0.3229   0.3285   0.3503
  0.3522   0.3526   0.3586   0.3659   0.3691   0.3800   0.3844   0.3872
  0.4021   0.4036   0.4060   0.4106   0.4138   0.4181   0.4207   0.4289
  0.4326   0.4371   0.4497   0.4544   0.4649   0.4664   0.4677   0.4758
  0.4798   0.4853   0.4894   0.4921   0.4978   0.5025   0.5044   0.5092
  0.5143   0.5163   0.5220   0.5254   0.5299   0.5319   0.5343   0.5426
  0.5450   0.5497   0.5570   0.5606   0.5661   0.5753   0.5811   0.5846
  0.5955   0.6083   0.6126   0.6131   0.6301   0.6312   0.6390   0.6442
  0.6493   0.6513   0.6579   0.6591   0.6643   0.6707   0.6736   0.6779
  0.6796   0.6845   0.6857   0.6880   0.6897   0.6912   0.6984   0.7000
  0.7064   0.7077   0.7098   0.7174   0.7206   0.7244   0.7248   0.7281
  0.7306   0.7353   0.7377   0.7422   0.7478   0.7514   0.7569   0.7622
  0.7642   0.7731   0.7821   0.7855   0.7976   0.8066   0.8171   0.8216
  0.8240   0.8279   0.8304   0.8357   0.8398   0.8478   0.8543   0.8643
  0.8755   0.8851   0.8911   0.8934   0.9006   0.9046   0.9101   0.9199
  0.9235   0.9364   0.9382   0.9444   0.9481   0.9605   0.9688   0.9737
  0.9872   0.9979   1.0033   1.0103   1.0206   1.0225   1.0354   1.0428
  1.0522   1.0636   1.0706   1.0762   1.0959   1.0977   1.0996   1.1064
  1.1096   1.1296   1.1373   1.1399   1.1506   1.1536   1.1569   1.1652
  1.1697   1.1754   1.1787   1.1921   1.2097   1.2145   1.2183   1.2228
  1.2331   1.2458   1.2515   1.2593   1.2699   1.2961   1.3023   1.3075
  1.3355   1.3430   1.3459   1.3534   1.3587   1.3791   1.3817   1.4061
  1.4126   1.4272   1.4490   1.4855   1.4963   1.5026   1.5172   1.5208
  1.5320   1.5358   1.5403   1.5426   1.5474   1.5499   1.5544   1.5614
  1.5694   1.5748   1.5800   1.5858   1.5907   1.5951   1.6044   1.6154
  1.6219   1.6278   1.6372   1.6391   1.6395   1.6477   1.6499   1.6512
  1.6557   1.6631   1.6698   1.6711   1.6789   1.6867   1.6918   1.6930
  1.7045   1.7105   1.7170   1.7179   1.7255   1.7275   1.7431   1.7480
  1.7495   1.7507   1.7592   1.7649   1.7775   1.7840   1.7904   1.7972
  1.8026   1.8095   1.8178   1.8217   1.8289   1.8354   1.8431   1.8499
  1.8512   1.8556   1.8598   1.8688   1.8740   1.8763   1.8834   1.8855
  1.8920   1.9007   1.9105   1.9148   1.9259   1.9279   1.9381   1.9517
  1.9615   1.9758   1.9794   1.9843   1.9924   2.0001   2.0040   2.0071
  2.0130   2.0154   2.0191   2.0204   2.0262   2.0353   2.0387   2.0444
  2.0461   2.0621   2.0628   2.0791   2.0815   2.0907   2.0962   2.1084
  2.1107   2.1186   2.1293   2.1382   2.1432   2.1596   2.1653   2.1675
  2.1717   2.1795   2.1824   2.1988   2.2060   2.2185   2.2251   2.2482
  2.2584   2.2818   2.2884   2.2975   2.3069   2.3215   2.3359   2.3510
  2.3619   2.3730   2.3834   2.3961   2.3999   2.4040   2.4091   2.4177
  2.4266   2.4338   2.4387   2.4477   2.4640   2.4708   2.4763   2.4833
  2.4941   2.4992   2.5016   2.5059   2.5131   2.5204   2.5266   2.5378
  2.5424   2.5481   2.5582   2.5705   2.5941   2.6090   2.6191   2.6397
  2.6473   2.6572   2.6582   2.6689   2.6755   2.6847   2.6879   2.6904
  2.6936   2.7002   2.7014   2.7068   2.7096   2.7159   2.7210   2.7230
  2.7273   2.7338   2.7401   2.7442   2.7497   2.7518   2.7587   2.7643
  2.7700   2.7738   2.7745   2.7860   2.7924   2.8067   2.8130   2.8145
  2.8230   2.8276   2.8329   2.8469   2.8492   2.8603   2.8711   2.8720
  2.8808   2.8906   2.8949   2.9102   2.9168   2.9192   2.9208   2.9370
  2.9474   2.9568   2.9670   2.9861   2.9926   3.0032   3.0086   3.0108
  3.0126   3.0240   3.0261   3.0340   3.0477   3.0586   3.0727   3.0762
  3.0868   3.0910   3.1167   3.1357   3.1438   3.1696   3.1856   3.2018
  3.2209   3.2440   3.2848   3.3109   3.3319   3.3475   3.3779   3.3879
  3.4138   3.4410   3.4495   3.4699   3.4843   3.5032   3.5531   3.5757
  3.5861   3.5952   3.6030   3.6093   3.6573   3.6884   3.6917   3.7132
  3.7185   3.7498   3.7604   3.8439   3.8690   3.8993   3.9119   3.9173
  3.9268   3.9428   3.9512   3.9590   3.9643   4.0095   4.0306   4.0686
  4.0726   4.1223   4.1304   4.1344   4.1885   4.2269   4.2349   4.2421
  4.2675   4.2790   4.2959   4.3236   4.3571   4.4337   4.5566   4.7667
  4.8802   4.9268   4.9557   5.0949   5.1104  23.6118  23.7338  23.8853
 23.9866  24.0124  24.0235  24.0421  24.0470  24.0560  24.0598  24.0693
 24.0875  24.0960  24.1064  24.1166  24.1367  24.1704  24.1843  24.2440
 24.2466  24.2843  24.3217  24.3254  24.3279  35.7332
 --------------------------------------------------------------
 
          Ground-State Mulliken Net Atomic Charges

     Atom                 Charge (a.u.)
  ----------------------------------------
      1 C                    -0.295344
      2 C                    -0.157780
      3 N                    -0.409346
      4 H                     0.108517
      5 H                     0.111907
      6 H                     0.148208
      7 H                     0.101854
      8 C                    -0.087831
      9 H                     0.099157
     10 H                     0.109385
     11 H                     0.121375
     12 C                    -0.350312
     13 H                     0.107610
     14 H                     0.121712
     15 H                     0.121862
     16 C                    -0.098344
     17 H                     0.110103
     18 H                     0.147435
     19 C                    -0.339326
     20 H                     0.111787
     21 H                     0.115157
     22 H                     0.113080
     23 C                    -0.011982
     24 C                    -0.098799
     25 H                     0.123025
     26 C                    -0.121938
     27 H                     0.122000
     28 C                    -0.112933
     29 H                     0.123871
     30 C                    -0.124957
     31 H                     0.122035
     32 C                    -0.104065
     33 H                     0.123899
     34 C                    -0.089956
     35 C                    -0.130012
     36 H                     0.114468
     37 C                    -0.099043
     38 H                     0.120429
     39 C                    -0.016833
     40 C                    -0.076090
     41 H                     0.119897
     42 C                    -0.101654
     43 H                     0.119548
     44 C                    -0.053384
     45 C                    -0.126651
     46 H                     0.131620
     47 C                    -0.109648
     48 H                     0.121357
     49 C                    -0.113117
     50 H                     0.124001
     51 C                    -0.112727
     52 H                     0.121248
     53 C                    -0.113313
     54 H                     0.118839
  ----------------------------------------
  Sum of atomic charges =     0.000000

 -----------------------------------------------------------------
                    Cartesian Multipole Moments
 -----------------------------------------------------------------
    Charge (ESU x 10^10)
                 0.0000
    Dipole Moment (Debye)
         X      -0.0992      Y      -0.1995      Z      -0.0141
       Tot       0.2232
    Quadrupole Moments (Debye-Ang)
        XX    -136.5020     XY      -5.7700     YY    -157.3573
        XZ      -3.3220     YZ     -10.8840     ZZ    -143.7651
    Octopole Moments (Debye-Ang^2)
       XXX    -160.3764    XXY    -192.7104    XYY     -97.0440
       YYY    -605.4494    XXZ     -91.2868    XYZ       1.5910
       YYZ    -128.2533    XZZ     -43.4080    YZZ    -203.0659
       ZZZ    -312.0686
    Hexadecapole Moments (Debye-Ang^3)
      XXXX   -7856.8561   XXXY     545.4438   XXYY   -2210.1700
      XYYY     822.2493   YYYY   -4479.9490   XXXZ     -29.3183
      XXYZ    -331.3175   XYYZ      76.6593   YYYZ    -893.6920
      XXZZ   -1769.0731   XYZZ     268.4908   YYZZ   -1138.4545
      XZZZ      62.0811   YZZZ    -823.4911   ZZZZ   -2391.4593
 -----------------------------------------------------------------
 Calculating analytic gradient of the CIS energy
 RPA relaxed dipole moment
            1
    1   0.4364108
    2   3.1529759
    3   2.8174727
	Magnitude:	 4.251 au	10.805 Debye
 RPA 1 State Energy is -986.5516018994
 Gradient of the state energy (including RPA Excitation Energy)
            1           2           3           4           5           6
    1   0.0001379   0.0009839  -0.0003631  -0.0012433   0.0046782  -0.0013822
    2  -0.0051079  -0.0000570   0.0001402  -0.0006299   0.0027963  -0.0007257
    3  -0.0027203   0.0032919  -0.0007243   0.0052826  -0.0003843   0.0006159
            7           8           9          10          11          12
    1  -0.0027793  -0.0054760   0.0028221   0.0024501   0.0010841   0.0022716
    2   0.0017610  -0.0008107   0.0042598  -0.0036087   0.0010002  -0.0004380
    3  -0.0019357  -0.0049363   0.0026670   0.0005109  -0.0032330  -0.0031389
           13          14          15          16          17          18
    1  -0.0006721   0.0002644  -0.0018447  -0.0017964   0.0022041  -0.0005653
    2  -0.0011539  -0.0020915   0.0039268   0.0025358  -0.0020471  -0.0000874
    3  -0.0012937   0.0040168   0.0005043  -0.0007637   0.0028229  -0.0006642
           19          20          21          22          23          24
    1  -0.0016578   0.0028632  -0.0024147   0.0001584   0.0018995   0.0002902
    2  -0.0046576  -0.0007061   0.0025524   0.0026389   0.0000815  -0.0007495
    3  -0.0008249  -0.0009391  -0.0029538   0.0047237  -0.0007347   0.0002521
           25          26          27          28          29          30
    1   0.0007606  -0.0011527  -0.0007714  -0.0011702  -0.0012517  -0.0004726
    2  -0.0002814  -0.0000725  -0.0000091   0.0002259   0.0002262   0.0003058
    3   0.0017186   0.0010087   0.0011804  -0.0002512  -0.0000505  -0.0017226
           31          32          33          34          35          36
    1  -0.0003267   0.0014831  -0.0001448  -0.0009663  -0.0003417  -0.0006336
    2   0.0001677   0.0002922   0.0001232   0.0004921   0.0001132  -0.0002720
    3  -0.0004801  -0.0017784   0.0003171   0.0000755   0.0009049   0.0008704
           37          38          39          40          41          42
    1   0.0004582   0.0004431   0.0010680   0.0007389  -0.0000581   0.0000982
    2  -0.0006332  -0.0005311   0.0001625   0.0007063   0.0000790  -0.0000046
    3  -0.0003193   0.0010266  -0.0003272  -0.0010925   0.0003228  -0.0010580
           43          44          45          46          47          48
    1  -0.0002546  -0.0012107  -0.0005767  -0.0000870   0.0006727   0.0006294
    2   0.0004525   0.0005363   0.0003417   0.0005781   0.0007044   0.0003652
    3  -0.0001603   0.0008219  -0.0010658  -0.0001915  -0.0008497  -0.0005187
           49          50          51          52          53          54
    1   0.0008084   0.0011553   0.0002542   0.0002691  -0.0011808  -0.0001523
    2  -0.0004884  -0.0004433  -0.0010695  -0.0005213  -0.0003558  -0.0000121
    3   0.0000013  -0.0000840   0.0007572   0.0004168   0.0008213   0.0002650
 PCM gradient for the ground-state
 Computing fast CPCM-SWIG gradient
 Updating gradient with PCM contributions...
 -- total gradient after adding PCM contribution --
---------------------------------------------------
  Atom         X              Y              Z     
---------------------------------------------------
   1       0.000155      -0.005831      -0.002816
   2       0.001791       0.000226       0.003041
   3      -0.000406       0.000075      -0.000826
   4      -0.001279      -0.000600       0.005634
   5       0.005122       0.003117      -0.000372
   6      -0.002112      -0.000992       0.000611
   7      -0.003119       0.001972      -0.002126
   8      -0.005497      -0.001674      -0.005101
   9       0.003018       0.004641       0.002744
  10       0.002217      -0.003127       0.000502
  11       0.001049       0.000948      -0.003054
  12       0.002351      -0.001109      -0.002757
  13      -0.000643      -0.000770      -0.001181
  14       0.000229      -0.001757       0.003509
  15      -0.001894       0.003944       0.000442
  16      -0.002066       0.002803      -0.000138
  17       0.002421      -0.002056       0.002824
  18      -0.000545      -0.000406      -0.001252
  19      -0.002460      -0.004820      -0.001067
  20       0.003501      -0.000895      -0.001159
  21      -0.002403       0.002655      -0.003035
  22       0.000206       0.002882       0.005215
  23       0.001095       0.000137      -0.000634
  24      -0.000175      -0.000129      -0.001702
  25       0.001046      -0.000550       0.002680
  26       0.000099       0.000038      -0.000728
  27      -0.001397      -0.000071       0.002108
  28       0.000903      -0.000114      -0.000098
  29      -0.002393       0.000410      -0.000133
  30       0.000367      -0.000150       0.000196
  31      -0.000777       0.000411      -0.001514
  32       0.000453      -0.000027       0.000181
  33       0.000453       0.000272      -0.000751
  34      -0.000674       0.000344       0.000140
  35       0.000367       0.000816      -0.000937
  36      -0.001214      -0.000643       0.001936
  37       0.000070       0.000626      -0.001909
  38       0.000792      -0.001339       0.002166
  39       0.000799       0.000215      -0.000140
  40      -0.000136      -0.000348       0.000547
  41       0.000802       0.000809      -0.000842
  42       0.000166      -0.000945       0.000691
  43      -0.000535       0.001223      -0.001257
  44      -0.000719       0.000348       0.000620
  45      -0.000198      -0.001256       0.000454
  46      -0.000372       0.001698      -0.001133
  47      -0.000542      -0.000241       0.000452
  48       0.001407       0.000890      -0.001326
  49      -0.001144       0.000304       0.000161
  50       0.002317      -0.000916      -0.000186
  51      -0.000199       0.000468      -0.000460
  52       0.000586      -0.001468       0.001153
  53       0.000077       0.000644      -0.000689
  54      -0.000959      -0.000682       0.001314
---------------------------------------------------
 Number of fixed atoms: 0
Adjusting gradient with QM/MM Energy...State: 1
QM/MM CIS energy: -986.657735
 Computing fast CPCM-SWIG gradient for CIS density
 Updating gradient with PCM contributions...
 -- total gradient after adding PCM contribution --
---------------------------------------------------
  Atom         X              Y              Z     
---------------------------------------------------
   1      -0.000007       0.000002       0.000003
   2       0.000017      -0.000021      -0.000025
   3       0.000002      -0.000024      -0.000023
   4      -0.000009      -0.000007       0.000003
   5      -0.000004      -0.000002       0.000005
   6      -0.000052       0.000032       0.000063
   7      -0.000005      -0.000003       0.000001
   8       0.000010       0.000004       0.000009
   9      -0.000013       0.000004       0.000002
  10      -0.000002      -0.000004       0.000000
  11      -0.000004       0.000002       0.000002
  12      -0.000029      -0.000052       0.000052
  13       0.000004       0.000038      -0.000078
  14      -0.000007      -0.000011      -0.000007
  15      -0.000003      -0.000001      -0.000002
  16       0.000057      -0.000047       0.000026
  17      -0.000003       0.000002       0.000005
  18      -0.000135       0.000072      -0.000003
  19       0.000007      -0.000002       0.000002
  20      -0.000004       0.000004       0.000003
  21      -0.000008       0.000006       0.000011
  22      -0.000004       0.000001       0.000007
  23       0.000013      -0.000013      -0.000004
  24      -0.000001       0.000003       0.000000
  25       0.000005       0.000007       0.000003
  26       0.000010       0.000008       0.000002
  27       0.000006       0.000011       0.000005
  28       0.000004       0.000008       0.000004
  29       0.000004       0.000009       0.000006
  30       0.000003       0.000003       0.000008
  31       0.000002       0.000006       0.000004
  32      -0.000001       0.000010       0.000004
  33       0.000000       0.000002       0.000001
  34       0.000005       0.000018      -0.000010
  35       0.000073      -0.000014       0.000004
  36      -0.000003      -0.000026      -0.000016
  37       0.000011       0.000022      -0.000002
  38       0.000002      -0.000005      -0.000003
  39      -0.000019       0.000002      -0.000003
  40       0.000008      -0.000036      -0.000002
  41       0.000021       0.000045      -0.000006
  42       0.000006       0.000016      -0.000000
  43       0.000003      -0.000001      -0.000004
  44       0.000051      -0.000024      -0.000032
  45       0.000009       0.000013       0.000014
  46      -0.000024      -0.000037       0.000015
  47       0.000002      -0.000005      -0.000004
  48      -0.000000      -0.000008      -0.000008
  49      -0.000007      -0.000004      -0.000003
  50      -0.000000      -0.000007      -0.000007
  51       0.000009       0.000001      -0.000007
  52       0.000000      -0.000003      -0.000004
  53      -0.000000       0.000010      -0.000007
  54      -0.000000      -0.000003      -0.000004
---------------------------------------------------
 Number of fixed atoms: 0
Adjusting gradient with QM/MM Energy...State: 1
QM/MM CIS energy: -986.657735
 Gradient time:  CPU 4215.89 s  wall 513.35 s
 Geometry Optimization Parameters
   NAtoms,    NIC,     NZ,  NCons,   NDum,   NFix, NCnnct, MaxDiis
       54     439       0       0       0       0       0       0


** GEOMETRY OPTIMIZATION IN DELOCALIZED INTERNAL COORDINATES **
   Searching for a Minimum

   Optimization Cycle:   1

                       Coordinates (Angstroms)
     ATOM                X               Y               Z
      1  C        -0.7522871938    4.9132714042    2.1288396993
      2  C        -0.6243714806    3.5614984031    1.4191018912
      3  N         0.3543851663    2.6913301697    2.0292001119
      4  H        -1.0144597087    4.7897372791    3.1810500351
      5  H         0.1696425671    5.4914357196    2.0660015801
      6  H        -1.5827152381    3.0427182420    1.4320106212
      7  H        -1.5503048886    5.4749255708    1.6428644589
      8  C         0.1175980982    2.1062514747    3.3398342441
      9  H         0.6044414267    2.7699502766    4.0671981069
     10  H         0.6668262676    1.1635064276    3.3502739599
     11  H        -0.3459039147    3.6912498931    0.3740541263
     12  C        -1.3367800103    1.8758849033    3.7013167829
     13  H        -1.8321705289    1.2515469479    2.9581672745
     14  H        -1.3691106111    1.3595288093    4.6618298737
     15  H        -1.8989735953    2.8051566136    3.8020771096
     16  C         1.6921320494    2.6268346710    1.5091423392
     17  H         2.2935762876    2.0293650443    2.1928187470
     18  H         1.6316144363    2.0594395379    0.5692467946
     19  C         2.3498006085    3.9785203075    1.2443230457
     20  H         3.3532284691    3.7900467838    0.8623187954
     21  H         1.8090505629    4.5590855479    0.4956380480
     22  H         2.4329512706    4.5664876549    2.1608039209
     23  C         3.2836201926   -0.3587054710   -0.0520825242
     24  C         4.1305492433   -0.2896278851   -1.1800643832
     25  H         3.7064484019   -0.0925155305   -2.1580758983
     26  C         5.4950493274   -0.5046068845   -1.0782684414
     27  H         6.1074967150   -0.4534902723   -1.9727555455
     28  C         6.0832124804   -0.8010539877    0.1501181132
     29  H         7.1508936674   -0.9711851360    0.2265034736
     30  C         5.2693225254   -0.8773661999    1.2764682742
     31  H         5.7053119647   -1.1016543931    2.2448777733
     32  C         3.9032283247   -0.6584405698    1.1813358071
     33  H         3.3048792629   -0.6990268601    2.0847839057
     34  C         1.8536240004   -0.1024419070   -0.1367960705
     35  C         1.2723554437    0.6594197767   -1.1961142437
     36  H         1.8949467994    0.9855065930   -2.0227642334
     37  C        -0.0422225944    1.0466238974   -1.1853856327
     38  H        -0.4093797396    1.6182499592   -2.0298481476
     39  C        -0.9408536607    0.6791110075   -0.1297509796
     40  C        -0.3795772194   -0.1925445636    0.8600919935
     41  H        -1.0110805583   -0.5947230872    1.6444093487
     42  C         0.9441510587   -0.5521276361    0.8598564691
     43  H         1.2929670422   -1.2246400475    1.6370129446
     44  C        -2.2992849671    1.1524018587   -0.0711151578
     45  C        -3.2569601966    0.6196655164    0.8352311556
     46  H        -3.0017838153   -0.2396370041    1.4448167881
     47  C        -4.5324134299    1.1439434314    0.9457071197
     48  H        -5.2270212873    0.6957526004    1.6495862270
     49  C        -4.9415373891    2.2227384551    0.1601593278
     50  H        -5.9416719808    2.6298909963    0.2491711331
     51  C        -4.0323805195    2.7497878729   -0.7568955349
     52  H        -4.3256082929    3.5814202632   -1.3904272296
     53  C        -2.7534750464    2.2345550506   -0.8763421171
     54  H        -2.0804737934    2.6939494750   -1.5906512808
   Point Group: c1    Number of degrees of freedom:   156


   Energy is   -986.657734885


 Attempting to generate delocalized internal coordinates
 Initial Hessian constructed with Jon Baker's OPTIMIZE code

155 Hessian modes will be used to form the next step
  Hessian Eigenvalues:
     0.004930    0.005604    0.005695    0.008251    0.009722    0.010229
     0.013830    0.014870    0.015099    0.017223    0.017537    0.018062
     0.018542    0.018619    0.019586    0.020703    0.021203    0.021687
     0.022107    0.022301    0.022620    0.022858    0.022946    0.023034
     0.023348    0.023372    0.023482    0.023629    0.023819    0.023838
     0.023900    0.023926    0.024170    0.024659    0.026933    0.028724
     0.030489    0.033205    0.036257    0.038145    0.040820    0.042084
     0.043245    0.045536    0.050548    0.052303    0.054225    0.054959
     0.055078    0.057901    0.059141    0.059885    0.060075    0.062659
     0.071119    0.072849    0.087107    0.091351    0.092374    0.096744
     0.100679    0.105734    0.120194    0.129455    0.131372    0.134429
     0.139060    0.152684    0.159843    0.159924    0.159926    0.159947
     0.159960    0.159977    0.159986    0.159990    0.159994    0.159999
     0.160000    0.160000    0.160000    0.160000    0.160000    0.160000
     0.160000    0.164314    0.176727    0.189276    0.189982    0.210395
     0.216554    0.219606    0.219991    0.220000    0.220005    0.223156
     0.233647    0.234510    0.237337    0.241830    0.249892    0.292288
     0.294710    0.297641    0.317491    0.322750    0.337568    0.338552
     0.343346    0.345146    0.345777    0.346520    0.346843    0.346987
     0.347124    0.347248    0.347936    0.348011    0.348086    0.348327
     0.348974    0.349174    0.353028    0.353113    0.353592    0.353650
     0.353926    0.354699    0.355063    0.355336    0.355360    0.355616
     0.355751    0.360857    0.372155    0.375661    0.376352    0.380060
     0.389376    0.390998    0.394050    0.403227    0.409678    0.410821
     0.416621    0.445145    0.450114    0.450709    0.457199    0.464588
     0.470624    0.471673    0.480460    0.484352    0.501308

 Minimum search - taking simple RFO step
 Searching for Lamda that Minimizes Along All modes
 Value Taken    Lamda =  -0.00000125
 Step Taken.  Stepsize is  0.009059

                             Maximum     Tolerance    Cnvgd?
         Gradient           0.000136      0.000020      NO
         Displacement       0.003445      0.001200      NO
         Energy change     *********      0.000001      NO


 New Cartesian Coordinates Obtained by Inverse Iteration

 Displacement from previous Coordinates is:  0.029910
 ----------------------------------------------------------------
             Standard Nuclear Orientation (Angstroms)
    I     Atom           X                Y                Z
 ----------------------------------------------------------------
    1      C      -0.7549921778     4.9117972750     2.1273397182
    2      C      -0.6228404811     3.5606701624     1.4171569172
    3      N       0.3558065365     2.6917411168     2.0291387503
    4      H      -1.0195726150     4.7872043299     3.1788193573
    5      H       0.1660327447     5.4916780203     2.0671428739
    6      H      -1.5801073932     3.0399238702     1.4268950772
    7      H      -1.5528092597     5.4722764061     1.6396827677
    8      C       0.1180767784     2.1068958417     3.3397177691
    9      H       0.6048215198     2.7705709543     4.0671673752
   10      H       0.6670596438     1.1640157254     3.3506316779
   11      H      -0.3418353892     3.6914822426     0.3729194902
   12      C      -1.3364681333     1.8770586509     3.7008359900
   13      H      -1.8319062088     1.2523373123     2.9580642112
   14      H      -1.3691121908     1.3613256808     4.6616761669
   15      H      -1.8985102834     2.8064876627     3.8009419322
   16      C       1.6938263103     2.6270741226     1.5099148468
   17      H       2.2948690603     2.0293580177     2.1937279039
   18      H       1.6328844319     2.0598240770     0.5699796521
   19      C       2.3518660887     3.9786008294     1.2452316324
   20      H       3.3555070100     3.7898712160     0.8639122647
   21      H       1.8117086188     4.5590844314     0.4960579730
   22      H       2.4345448014     4.5667453844     2.1616409227
   23      C       3.2834051442    -0.3586491653    -0.0520106237
   24      C       4.1302220453    -0.2891543476    -1.1800519776
   25      H       3.7060665094    -0.0913308348    -2.1578961793
   26      C       5.4946667090    -0.5045934237    -1.0785546118
   27      H       6.1070143310    -0.4531321280    -1.9730901632
   28      C       6.0829020806    -0.8019402884     0.1495759903
   29      H       7.1505406687    -0.9724411435     0.2257227795
   30      C       5.2691302306    -0.8786660137     1.2759782666
   31      H       5.7051700773    -1.1036697358     2.2441990678
   32      C       3.9030902879    -0.6592823904     1.1811507652
   33      H       3.3048528328    -0.7002237830     2.0846559492
   34      C       1.8534833670    -0.1019274601    -0.1364152208
   35      C       1.2722845892     0.6605596532    -1.1953345962
   36      H       1.8948624443     0.9868459687    -2.0219165381
   37      C      -0.0422124760     1.0481057787    -1.1842543635
   38      H      -0.4093185863     1.6201592399    -2.0284535277
   39      C      -0.9408904794     0.6802725950    -0.1287573922
   40      C      -0.3796727631    -0.1918750386     0.8606754490
   41      H      -1.0112096731    -0.5942833273     1.6448642755
   42      C       0.9439918296    -0.5517117577     0.8601955154
   43      H       1.2927125859    -1.2246181301     1.6370537573
   44      C      -2.2995099384     1.1531938113    -0.0701495549
   45      C      -3.2571994078     0.6196556235     0.8356671286
   46      H      -3.0015796368    -0.2394634342     1.4452875899
   47      C      -4.5330161911     1.1431130920     0.9457894058
   48      H      -5.2275996428     0.6943615209     1.6493341653
   49      C      -4.9425000708     2.2218251780     0.1603229932
   50      H      -5.9429186463     2.6283432279     0.2490415745
   51      C      -4.0332997085     2.7496787155    -0.7562144559
   52      H      -4.3267851066     3.5812936534    -1.3896488658
   53      C      -2.7540198067     2.2352770321    -0.8752644219
   54      H      -2.0810110116     2.6952549825    -1.5891934503
 ----------------------------------------------------------------
 Nuclear Repulsion Energy =        2175.26570686 hartrees
 There are       90 alpha and       90 beta electrons
 Discretize the solute cavity surface with Lebedev spheres
	Using 110 Lebedev grid points for each H atom
	Using 590 Lebedev grid points for other atoms
	Atomic van der Waals radii will be scaled by 1.20
 Remove points where switching function is < 1.0e-08
 Keep 5919 surface tesserae and discard 12021 interior tesserae
 Molecular Surface Area = 399.740 Angst**2
 Applying Cartesian multipole field
    Component          Value
    ---------          -----
     (2,0,0)        1.00000E-12
     (0,2,0)        2.00000E-12
     (0,0,2)       -3.00000E-11
 Nucleus-field energy     =    -0.0000000373 hartrees
 Requested basis set is 6-311G(d,p)
 There are 241 shells and 624 basis functions
 A cutoff of  1.0D-14 yielded  19825 shell pairs
 There are    133906 function pairs (    144502 Cartesian)
 Smallest overlap matrix eigenvalue = 1.22E-04
 Guess MOs from SCF MO coefficient file

 -----------------------------------------------------------------------
  General SCF calculation program by
  Eric Jon Sundstrom, Paul Horn, Yuezhi Mao, Dmitri Zuev, Alec White,
  David Stuck, Shaama M.S., Shane Yost, Joonho Lee, David Small,
  Daniel Levine, Susi Lehtola, Hugh Burton, Evgeny Epifanovsky,
  Bang C. Huynh
 -----------------------------------------------------------------------
 Exchange:     0.2220 Hartree-Fock + 1.0000 wB97X-D + LR-HF
 Correlation:  1.0000 wB97X-D
 Using SG-2 standard quadrature grid
 Dispersion:   Grimme D
 A restricted SCF calculation will be
 performed using Roothaan-Hall, DIIS
 SCF converges when DIIS error is below 1.0e-08
 ---------------------------------------
  Cycle       Energy         DIIS error
 ---------------------------------------
    1    -986.6507794524      7.02e-05  Roothaan Step
 ---------------------------------------
  Cycle       Energy         DIIS error
 ---------------------------------------
    1    -986.6570659349      8.96e-05  
    2    -986.6574856688      5.99e-05  
    3    -986.6576589910      1.07e-05  
    4    -986.6576635694      6.98e-06  
    5    -986.6576660512      1.28e-06  
    6    -986.6576661462      6.36e-07  
    7    -986.6576661670      1.92e-07  
    8    -986.6576661690      5.53e-08  
    9    -986.6576661692      1.73e-08  
   10    -986.6576661693      5.70e-09  Convergence criterion met
 ---------------------------------------
 SCF time:   CPU 5303.70s  wall 366.00s 

************** Final PCM Free Energy Summary **************
 G_electrostatic  =      -0.00687793 hartree =      -4.31596665 kcal/mol
 G_cavitation     =       0.00000000 hartree =       0.00000000 kcal/mol
 G_dispersion     =       0.00000000 hartree =       0.00000000 kcal/mol
 G_repulsion      =       0.00000000 hartree =       0.00000000 kcal/mol
 --------------------------------------------------
 Non-electrostatic Free Energy =       0.00000000 hartree =       0.00000000 kcal/mol
 Total                         =      -0.00687793 hartree =      -4.31596665 kcal/mol
 --------------------------------------------------
 SCF Energy (H0 + V/2)                       =    -986.65766617 
 Solute Internal Energy (H0)                 =    -986.65078824 
 Total Free Energy (H0 + V/2 + non-elec)     =    -986.65766617 hartree
                                             = -619137.03015597 kcal/mol
***********************************************************

 SCF   energy in the final basis set =     -986.6576661693
 Total energy in the final basis set =     -986.6576661693
 
 MAX_CIS_SUBSPACE fits in available memory
 Adding PCM contribution to the XC response (LR-PCM)
 CIS energy converged when residual is below 10e- 6

 Direct TDDFT calculation will be performed
 Exchange:     0.2220 Hartree-Fock + 1.0000 wB97X-D + LR-HF
 Correlation:  1.0000 wB97X-D
 Using SG-2 standard quadrature grid
 Dispersion:   Grimme D
 ---------------------------------------------------
 Iter    Rts Conv    Rts Left    Ttl Dev     Max Dev
 ---------------------------------------------------
   1         0          10      0.004217    0.000766
   2         0          10      0.001509    0.000207
   3         0          10      0.001156    0.000187
   4         0          10      0.000942    0.000182
   5         0          10      0.000590    0.000123
   6         0          10      0.000397    0.000086
   7         0          10      0.000176    0.000039
   8         0          10      0.000110    0.000027
   9         2           8      0.000077    0.000032
  10         4           6      0.000063    0.000042
  11         5           5      0.000059    0.000045
  12         7           3      0.000026    0.000019
  13         7           3      0.000017    0.000011
  14         9           1      0.000009    0.000005
  15         9           1      0.000008    0.000003
  16         9           1      0.000006    0.000001
  17        10           0      0.000005    0.000001    Roots Converged
 ---------------------------------------------------
 
 ---------------------------------------------------
             TDDFT Excitation Energies              
 ---------------------------------------------------

 Excited state   1: excitation energy (eV) =    2.8862
 Total energy for state  1:                  -986.55160208 au
    Multiplicity: Singlet 
    Trans. Mom.: -1.1805 X   0.3743 Y  -0.0383 Z
    Strength   :     0.1085451887
    X: D(   90) --> V(    1) amplitude =  0.9852

 Excited state   2: excitation energy (eV) =    3.9584
 Total energy for state  2:                  -986.51219746 au
    Multiplicity: Singlet 
    Trans. Mom.: -3.1949 X   0.8657 Y   0.0451 Z
    Strength   :     1.0627958546
    X: D(   89) --> V(    1) amplitude =  0.9630

 Excited state   3: excitation energy (eV) =    4.0571
 Total energy for state  3:                  -986.50857094 au
    Multiplicity: Singlet 
    Trans. Mom.: -0.5194 X   0.2381 Y   0.1159 Z
    Strength   :     0.0337895538
    X: D(   90) --> V(    2) amplitude =  0.8673
    X: D(   90) --> V(    5) amplitude =  0.3972

 Excited state   4: excitation energy (eV) =    4.7787
 Total energy for state  4:                  -986.48205368 au
    Multiplicity: Singlet 
    Trans. Mom.:  0.1083 X  -0.0362 Y  -0.1636 Z
    Strength   :     0.0046589887
    X: D(   85) --> V(    1) amplitude =  0.3017
    X: D(   87) --> V(    1) amplitude = -0.5077
    X: D(   89) --> V(    2) amplitude =  0.6518

 Excited state   5: excitation energy (eV) =    4.8734
 Total energy for state  5:                  -986.47857186 au
    Multiplicity: Singlet 
    Trans. Mom.:  0.2072 X  -0.0188 Y   0.1087 Z
    Strength   :     0.0065800576
    X: D(   85) --> V(    1) amplitude = -0.3383
    X: D(   86) --> V(    1) amplitude =  0.3302
    X: D(   89) --> V(    4) amplitude =  0.3027
    X: D(   90) --> V(    4) amplitude =  0.5386
    X: D(   90) --> V(    5) amplitude = -0.3907

 Excited state   6: excitation energy (eV) =    4.9034
 Total energy for state  6:                  -986.47746890 au
    Multiplicity: Singlet 
    Trans. Mom.: -0.0299 X   0.0621 Y   0.0740 Z
    Strength   :     0.0012290912
    X: D(   90) --> V(    3) amplitude =  0.9104

 Excited state   7: excitation energy (eV) =    5.0263
 Total energy for state  7:                  -986.47295301 au
    Multiplicity: Singlet 
    Trans. Mom.: -0.0207 X   0.0623 Y  -0.1610 Z
    Strength   :     0.0037230386
    X: D(   85) --> V(    1) amplitude =  0.4600
    X: D(   86) --> V(    1) amplitude =  0.3569
    X: D(   86) --> V(    3) amplitude =  0.2937
    X: D(   88) --> V(    4) amplitude =  0.2766
    X: D(   89) --> V(    4) amplitude =  0.3214
    X: D(   89) --> V(    5) amplitude =  0.2892
    X: D(   90) --> V(    4) amplitude =  0.2225
    X: D(   90) --> V(    5) amplitude =  0.3033

 Excited state   8: excitation energy (eV) =    5.2401
 Total energy for state  8:                  -986.46509469 au
    Multiplicity: Singlet 
    Trans. Mom.:  0.3034 X   0.2416 Y  -0.2043 Z
    Strength   :     0.0246654188
    X: D(   85) --> V(    1) amplitude =  0.3337
    X: D(   86) --> V(    1) amplitude = -0.3610
    X: D(   89) --> V(    4) amplitude = -0.2382
    X: D(   90) --> V(    4) amplitude =  0.5576
    X: D(   90) --> V(    5) amplitude = -0.4133

 Excited state   9: excitation energy (eV) =    5.3670
 Total energy for state  9:                  -986.46043314 au
    Multiplicity: Singlet 
    Trans. Mom.: -0.2503 X  -0.1487 Y  -0.0537 Z
    Strength   :     0.0115225582
    X: D(   88) --> V(    1) amplitude =  0.7278
    X: D(   89) --> V(    3) amplitude =  0.4857
    X: D(   90) --> V(    3) amplitude = -0.2775

 Excited state  10: excitation energy (eV) =    5.4757
 Total energy for state 10:                  -986.45643737 au
    Multiplicity: Singlet 
    Trans. Mom.: -0.0788 X  -0.0831 Y   0.1602 Z
    Strength   :     0.0052028593
    X: D(   87) --> V(    1) amplitude = -0.3054
    X: D(   90) --> V(    2) amplitude = -0.2396
    X: D(   90) --> V(    4) amplitude =  0.3684
    X: D(   90) --> V(    5) amplitude =  0.4347
    X: D(   90) --> V(    6) amplitude =  0.3713
    X: D(   90) --> V(    7) amplitude = -0.3118
    X: D(   90) --> V(   10) amplitude = -0.3061
 
 ---------------------------------------------------
 Calculating Relaxed Density
 ---------------------------------------------------
 Iter    Rts Conv    Rts Left    Ttl Dev     Max Dev
 ---------------------------------------------------
   1         0          10      0.000949    0.000163
   2         0          10      0.000314    0.000058
   3         0          10      0.000084    0.000014
   4         0          10      0.000026    0.000004
   5         7           3      0.000004    0.000001
   6        10           0      0.000000    0.000000    Roots Converged
 ---------------------------------------------------
  SETman timing summary (seconds)
  CPU time             30246.31s
  System time              0.08s
  Wall time             2297.35s
 
 --------------------------------------------------------------
 
                    Orbital Energies (a.u.)
 --------------------------------------------------------------
 
 Alpha MOs
 -- Occupied --
-14.3789 -10.3072 -10.3064 -10.3054 -10.3049 -10.2919 -10.2917 -10.2916
-10.2911 -10.2906 -10.2905 -10.2904 -10.2903 -10.2901 -10.2898 -10.2897
-10.2896 -10.2894 -10.2894 -10.2890 -10.2848 -10.2793 -10.2618 -10.2538
-10.2518  -1.0014  -0.9791  -0.9676  -0.9486  -0.8956  -0.8596  -0.8573
 -0.8529  -0.8511  -0.8457  -0.8424  -0.8086  -0.7955  -0.7416  -0.7239
 -0.7233  -0.7025  -0.6991  -0.6968  -0.6727  -0.6700  -0.6335  -0.6319
 -0.6140  -0.5764  -0.5745  -0.5716  -0.5665  -0.5483  -0.5397  -0.5375
 -0.5350  -0.5211  -0.5189  -0.5123  -0.5100  -0.5088  -0.5036  -0.4980
 -0.4876  -0.4863  -0.4794  -0.4696  -0.4660  -0.4655  -0.4607  -0.4484
 -0.4430  -0.4392  -0.4369  -0.4311  -0.4306  -0.4223  -0.4186  -0.4143
 -0.4051  -0.4003  -0.3983  -0.3765  -0.3398  -0.3362  -0.3340  -0.3323
 -0.2790  -0.2353
 -- Virtual --
 -0.0061   0.0453   0.0559   0.0582   0.0726   0.1098   0.1133   0.1228
  0.1304   0.1335   0.1412   0.1478   0.1563   0.1614   0.1723   0.1734
  0.1759   0.1817   0.1858   0.1910   0.1965   0.1971   0.2030   0.2077
  0.2129   0.2148   0.2315   0.2353   0.2390   0.2424   0.2441   0.2491
  0.2586   0.2627   0.2668   0.2691   0.2726   0.2842   0.2905   0.2922
  0.2956   0.3093   0.3102   0.3149   0.3203   0.3229   0.3285   0.3503
  0.3522   0.3526   0.3586   0.3660   0.3691   0.3800   0.3844   0.3872
  0.4020   0.4036   0.4060   0.4107   0.4138   0.4181   0.4207   0.4288
  0.4326   0.4372   0.4497   0.4543   0.4649   0.4663   0.4678   0.4758
  0.4798   0.4854   0.4894   0.4921   0.4978   0.5025   0.5044   0.5092
  0.5143   0.5163   0.5220   0.5254   0.5299   0.5319   0.5343   0.5426
  0.5450   0.5497   0.5570   0.5606   0.5661   0.5753   0.5811   0.5845
  0.5955   0.6084   0.6126   0.6133   0.6301   0.6312   0.6390   0.6443
  0.6493   0.6513   0.6578   0.6591   0.6643   0.6707   0.6736   0.6779
  0.6796   0.6845   0.6857   0.6880   0.6896   0.6912   0.6984   0.7000
  0.7064   0.7077   0.7097   0.7175   0.7205   0.7245   0.7248   0.7281
  0.7306   0.7353   0.7377   0.7422   0.7477   0.7514   0.7570   0.7622
  0.7643   0.7731   0.7820   0.7856   0.7975   0.8066   0.8171   0.8216
  0.8241   0.8279   0.8305   0.8357   0.8399   0.8479   0.8543   0.8642
  0.8757   0.8852   0.8912   0.8936   0.9007   0.9046   0.9102   0.9201
  0.9236   0.9364   0.9382   0.9445   0.9482   0.9605   0.9688   0.9737
  0.9873   0.9979   1.0032   1.0103   1.0208   1.0227   1.0355   1.0429
  1.0523   1.0637   1.0707   1.0762   1.0958   1.0978   1.0997   1.1064
  1.1096   1.1296   1.1374   1.1401   1.1507   1.1535   1.1568   1.1652
  1.1698   1.1753   1.1787   1.1920   1.2098   1.2145   1.2184   1.2228
  1.2331   1.2457   1.2516   1.2593   1.2699   1.2961   1.3024   1.3076
  1.3354   1.3430   1.3459   1.3534   1.3586   1.3791   1.3816   1.4061
  1.4125   1.4272   1.4491   1.4855   1.4963   1.5026   1.5174   1.5208
  1.5320   1.5358   1.5403   1.5427   1.5475   1.5500   1.5544   1.5613
  1.5694   1.5749   1.5801   1.5859   1.5906   1.5952   1.6045   1.6154
  1.6218   1.6278   1.6371   1.6392   1.6395   1.6476   1.6499   1.6511
  1.6557   1.6631   1.6698   1.6710   1.6789   1.6867   1.6918   1.6931
  1.7046   1.7105   1.7170   1.7179   1.7255   1.7275   1.7429   1.7479
  1.7496   1.7507   1.7593   1.7649   1.7777   1.7841   1.7904   1.7972
  1.8027   1.8094   1.8181   1.8217   1.8289   1.8355   1.8432   1.8499
  1.8512   1.8556   1.8597   1.8687   1.8741   1.8762   1.8834   1.8855
  1.8920   1.9007   1.9107   1.9149   1.9259   1.9280   1.9382   1.9517
  1.9615   1.9757   1.9794   1.9844   1.9922   2.0001   2.0041   2.0070
  2.0128   2.0154   2.0191   2.0204   2.0262   2.0352   2.0387   2.0445
  2.0461   2.0621   2.0627   2.0791   2.0815   2.0908   2.0963   2.1083
  2.1108   2.1186   2.1294   2.1383   2.1433   2.1597   2.1653   2.1675
  2.1718   2.1795   2.1824   2.1988   2.2060   2.2186   2.2252   2.2483
  2.2585   2.2819   2.2883   2.2973   2.3068   2.3214   2.3358   2.3511
  2.3619   2.3730   2.3836   2.3962   2.3998   2.4040   2.4091   2.4177
  2.4267   2.4338   2.4387   2.4477   2.4640   2.4709   2.4764   2.4835
  2.4941   2.4992   2.5015   2.5059   2.5131   2.5204   2.5267   2.5379
  2.5424   2.5481   2.5582   2.5705   2.5942   2.6090   2.6191   2.6397
  2.6472   2.6572   2.6582   2.6689   2.6755   2.6847   2.6881   2.6903
  2.6936   2.7002   2.7014   2.7069   2.7096   2.7159   2.7210   2.7230
  2.7272   2.7338   2.7401   2.7443   2.7497   2.7519   2.7588   2.7643
  2.7700   2.7737   2.7746   2.7860   2.7924   2.8068   2.8129   2.8145
  2.8231   2.8277   2.8329   2.8468   2.8491   2.8603   2.8711   2.8719
  2.8808   2.8907   2.8950   2.9101   2.9168   2.9193   2.9208   2.9370
  2.9475   2.9568   2.9670   2.9862   2.9927   3.0030   3.0087   3.0108
  3.0126   3.0239   3.0263   3.0340   3.0476   3.0588   3.0728   3.0762
  3.0868   3.0911   3.1168   3.1353   3.1438   3.1697   3.1856   3.2018
  3.2210   3.2440   3.2849   3.3112   3.3320   3.3474   3.3777   3.3879
  3.4137   3.4411   3.4496   3.4699   3.4843   3.5034   3.5531   3.5757
  3.5860   3.5952   3.6030   3.6094   3.6573   3.6888   3.6917   3.7132
  3.7186   3.7498   3.7603   3.8440   3.8690   3.8996   3.9119   3.9174
  3.9269   3.9428   3.9511   3.9590   3.9642   4.0096   4.0308   4.0686
  4.0726   4.1223   4.1304   4.1344   4.1885   4.2269   4.2349   4.2421
  4.2676   4.2790   4.2960   4.3236   4.3571   4.4337   4.5566   4.7668
  4.8802   4.9268   4.9557   5.0951   5.1105  23.6118  23.7338  23.8853
 23.9866  24.0124  24.0236  24.0422  24.0470  24.0560  24.0599  24.0694
 24.0875  24.0959  24.1065  24.1166  24.1367  24.1704  24.1843  24.2440
 24.2467  24.2843  24.3217  24.3254  24.3279  35.7333
 --------------------------------------------------------------
 
          Ground-State Mulliken Net Atomic Charges

     Atom                 Charge (a.u.)
  ----------------------------------------
      1 C                    -0.295256
      2 C                    -0.157874
      3 N                    -0.409390
      4 H                     0.108487
      5 H                     0.111904
      6 H                     0.148389
      7 H                     0.101860
      8 C                    -0.087791
      9 H                     0.099186
     10 H                     0.109337
     11 H                     0.121388
     12 C                    -0.350144
     13 H                     0.107540
     14 H                     0.121714
     15 H                     0.121781
     16 C                    -0.098601
     17 H                     0.110120
     18 H                     0.147440
     19 C                    -0.339047
     20 H                     0.111760
     21 H                     0.115105
     22 H                     0.113028
     23 C                    -0.012011
     24 C                    -0.098788
     25 H                     0.123023
     26 C                    -0.121934
     27 H                     0.122000
     28 C                    -0.112924
     29 H                     0.123872
     30 C                    -0.124951
     31 H                     0.122035
     32 C                    -0.104046
     33 H                     0.123886
     34 C                    -0.089910
     35 C                    -0.129977
     36 H                     0.114475
     37 C                    -0.098942
     38 H                     0.120417
     39 C                    -0.016998
     40 C                    -0.076166
     41 H                     0.119914
     42 C                    -0.101598
     43 H                     0.119546
     44 C                    -0.053774
     45 C                    -0.126389
     46 H                     0.131592
     47 C                    -0.109631
     48 H                     0.121359
     49 C                    -0.113110
     50 H                     0.124003
     51 C                    -0.112675
     52 H                     0.121251
     53 C                    -0.113327
     54 H                     0.118846
  ----------------------------------------
  Sum of atomic charges =     0.000000

 -----------------------------------------------------------------
                    Cartesian Multipole Moments
 -----------------------------------------------------------------
    Charge (ESU x 10^10)
                 0.0000
    Dipole Moment (Debye)
         X      -0.0994      Y      -0.2012      Z      -0.0156
       Tot       0.2250
    Quadrupole Moments (Debye-Ang)
        XX    -136.4988     XY      -5.7719     YY    -157.3557
        XZ      -3.3222     YZ     -10.8952     ZZ    -143.7738
    Octopole Moments (Debye-Ang^2)
       XXX    -160.4211    XXY    -192.7835    XYY     -97.0110
       YYY    -605.4839    XXZ     -91.3367    XYZ       1.5802
       YYZ    -128.2849    XZZ     -43.4058    YZZ    -203.0933
       ZZZ    -312.1108
    Hexadecapole Moments (Debye-Ang^3)
      XXXX   -7857.6954   XXXY     545.2925   XXYY   -2210.3902
      XYYY     822.3410   YYYY   -4479.5850   XXXZ     -29.2813
      XXYZ    -331.4773   XYYZ      76.7402   YYYZ    -893.5429
      XXZZ   -1769.2205   XYZZ     268.5315   YYZZ   -1138.2703
      XZZZ      62.0856   YZZZ    -823.3282   ZZZZ   -2390.6847
 -----------------------------------------------------------------
 Calculating analytic gradient of the CIS energy
 RPA relaxed dipole moment
            1
    1   0.4357509
    2   3.1524136
    3   2.8163327
	Magnitude:	 4.250 au	10.801 Debye
 RPA 1 State Energy is -986.5516020807
 Gradient of the state energy (including RPA Excitation Energy)
            1           2           3           4           5           6
    1   0.0001383   0.0009183  -0.0003346  -0.0012650   0.0046541  -0.0013044
    2  -0.0050697  -0.0001096   0.0001381  -0.0006665   0.0028022  -0.0007504
    3  -0.0027028   0.0032663  -0.0007713   0.0052928  -0.0003679   0.0005572
            7           8           9          10          11          12
    1  -0.0027707  -0.0054815   0.0028211   0.0024491   0.0010974   0.0022791
    2   0.0017526  -0.0008520   0.0042580  -0.0035993   0.0009968  -0.0004318
    3  -0.0019387  -0.0049424   0.0026645   0.0005215  -0.0032340  -0.0031421
           13          14          15          16          17          18
    1  -0.0006791   0.0002641  -0.0018390  -0.0017511   0.0022078  -0.0006466
    2  -0.0011572  -0.0020840   0.0039468   0.0025617  -0.0020523  -0.0000772
    3  -0.0012805   0.0040185   0.0005070  -0.0007202   0.0028272  -0.0006521
           19          20          21          22          23          24
    1  -0.0016416   0.0028635  -0.0024158   0.0001657   0.0018899   0.0002962
    2  -0.0046618  -0.0007085   0.0025521   0.0026334   0.0000822  -0.0007478
    3  -0.0008414  -0.0009384  -0.0029570   0.0047188  -0.0007367   0.0002512
           25          26          27          28          29          30
    1   0.0007596  -0.0011577  -0.0007722  -0.0011711  -0.0012531  -0.0004753
    2  -0.0002825  -0.0000733  -0.0000093   0.0002269   0.0002265   0.0003064
    3   0.0017183   0.0010098   0.0011812  -0.0002499  -0.0000503  -0.0017241
           31          32          33          34          35          36
    1  -0.0003268   0.0014860  -0.0001432  -0.0009434  -0.0003359  -0.0006290
    2   0.0001692   0.0002920   0.0001221   0.0004863   0.0001225  -0.0002735
    3  -0.0004814  -0.0017748   0.0003154   0.0000950   0.0008829   0.0008694
           37          38          39          40          41          42
    1   0.0004674   0.0004413   0.0010693   0.0007360  -0.0000677   0.0001018
    2  -0.0006342  -0.0005328   0.0001885   0.0007049   0.0000770  -0.0000022
    3  -0.0003112   0.0010236  -0.0003208  -0.0010990   0.0003258  -0.0010548
           43          44          45          46          47          48
    1  -0.0002540  -0.0012408  -0.0005782  -0.0000780   0.0006711   0.0006275
    2   0.0004532   0.0005927   0.0003220   0.0005943   0.0007073   0.0003668
    3  -0.0001614   0.0008738  -0.0010883  -0.0001933  -0.0008577  -0.0005164
           49          50          51          52          53          54
    1   0.0008069   0.0011536   0.0002665   0.0002685  -0.0011951  -0.0001491
    2  -0.0004940  -0.0004416  -0.0010776  -0.0005188  -0.0003643  -0.0000107
    3   0.0000137  -0.0000835   0.0007514   0.0004154   0.0008294   0.0002625
 PCM gradient for the ground-state
 Computing fast CPCM-SWIG gradient
 Updating gradient with PCM contributions...
 -- total gradient after adding PCM contribution --
---------------------------------------------------
  Atom         X              Y              Z     
---------------------------------------------------
   1       0.000155      -0.005793      -0.002798
   2       0.001726       0.000174       0.003014
   3      -0.000378       0.000073      -0.000874
   4      -0.001302      -0.000637       0.005645
   5       0.005099       0.003124      -0.000355
   6      -0.002034      -0.001017       0.000551
   7      -0.003111       0.001963      -0.002130
   8      -0.005504      -0.001715      -0.005108
   9       0.003018       0.004641       0.002742
  10       0.002217      -0.003118       0.000512
  11       0.001062       0.000944      -0.003052
  12       0.002360      -0.001104      -0.002759
  13      -0.000651      -0.000774      -0.001168
  14       0.000229      -0.001750       0.003511
  15      -0.001889       0.003966       0.000444
  16      -0.002021       0.002830      -0.000095
  17       0.002426      -0.002062       0.002829
  18      -0.000626      -0.000396      -0.001239
  19      -0.002444      -0.004826      -0.001086
  20       0.003502      -0.000898      -0.001159
  21      -0.002404       0.002655      -0.003038
  22       0.000213       0.002878       0.005212
  23       0.001085       0.000138      -0.000636
  24      -0.000169      -0.000126      -0.001703
  25       0.001045      -0.000552       0.002680
  26       0.000094       0.000037      -0.000727
  27      -0.001398      -0.000071       0.002109
  28       0.000902      -0.000114      -0.000097
  29      -0.002394       0.000411      -0.000133
  30       0.000364      -0.000151       0.000195
  31      -0.000778       0.000413      -0.001516
  32       0.000456      -0.000028       0.000185
  33       0.000454       0.000271      -0.000753
  34      -0.000651       0.000338       0.000159
  35       0.000372       0.000827      -0.000959
  36      -0.001210      -0.000645       0.001936
  37       0.000080       0.000625      -0.001901
  38       0.000791      -0.001342       0.002164
  39       0.000802       0.000242      -0.000135
  40      -0.000139      -0.000350       0.000540
  41       0.000793       0.000808      -0.000840
  42       0.000169      -0.000944       0.000694
  43      -0.000535       0.001224      -0.001258
  44      -0.000748       0.000404       0.000672
  45      -0.000198      -0.001276       0.000432
  46      -0.000363       0.001714      -0.001135
  47      -0.000544      -0.000240       0.000444
  48       0.001405       0.000892      -0.001323
  49      -0.001146       0.000298       0.000173
  50       0.002315      -0.000913      -0.000185
  51      -0.000187       0.000461      -0.000465
  52       0.000586      -0.001466       0.001151
  53       0.000064       0.000637      -0.000680
  54      -0.000956      -0.000681       0.001311
---------------------------------------------------
 Number of fixed atoms: 0
Adjusting gradient with QM/MM Energy...State: 1
QM/MM CIS energy: -986.657666
 Computing fast CPCM-SWIG gradient for CIS density
 Updating gradient with PCM contributions...
 -- total gradient after adding PCM contribution --
---------------------------------------------------
  Atom         X              Y              Z     
---------------------------------------------------
   1      -0.000013       0.000031       0.000015
   2      -0.000032      -0.000070      -0.000057
   3       0.000035      -0.000022      -0.000065
   4      -0.000022      -0.000041       0.000025
   5      -0.000021      -0.000005       0.000008
   6       0.000013       0.000009       0.000015
   7      -0.000005      -0.000005       0.000000
   8      -0.000000      -0.000037       0.000004
   9      -0.000015       0.000004      -0.000000
  10      -0.000001       0.000004       0.000009
  11       0.000003      -0.000004       0.000001
[...]
     36  H         1.8944147033    1.0100615065   -2.0080665097
     37  C        -0.0425327685    1.0619663221   -1.1701572658
     38  H        -0.4098323541    1.6413557974   -2.0092596647
     39  C        -0.9412678884    0.6831850992   -0.1186738571
     40  C        -0.3787349991   -0.1942655676    0.8652539001
     41  H        -1.0097488855   -0.6022206224    1.6470971216
     42  C         0.9449742894   -0.5531728143    0.8618935361
     43  H         1.2943597926   -1.2311043887    1.6339955780
     44  C        -2.3027708873    1.1485486490   -0.0610340752
     45  C        -3.2615571353    0.6002484518    0.8345812226
     46  H        -3.0027886090   -0.2626188040    1.4375018280
     47  C        -4.5413751923    1.1139408533    0.9427257384
     48  H        -5.2366040879    0.6536403853    1.6380822942
     49  C        -4.9539381500    2.1972621025    0.1650185285
     50  H        -5.9576379635    2.5959815482    0.2520692856
     51  C        -4.0434966932    2.7400159608   -0.7411621993
     52  H        -4.3391410824    3.5757433799   -1.3681483647
     53  C        -2.7598939490    2.2353841739   -0.8579653084
     54  H        -2.0862181161    2.7070954214   -1.5635311967
   Point Group: c1    Number of degrees of freedom:   156


   Energy is   -986.657419426

 Hessian updated using BFGS update

156 Hessian modes will be used to form the next step
  Hessian Eigenvalues:
     0.000325    0.001810    0.002371    0.003307    0.003568    0.004682
     0.005460    0.007647    0.009855    0.011565    0.014608    0.015138
     0.016531    0.017971    0.018134    0.018861    0.018946    0.019903
     0.020304    0.021358    0.021627    0.022221    0.022303    0.022769
     0.022889    0.023028    0.023332    0.023349    0.023376    0.023494
     0.023636    0.023815    0.023826    0.023892    0.023927    0.024248
     0.025073    0.026542    0.028606    0.030647    0.034369    0.035460
     0.037933    0.038593    0.040287    0.044279    0.049226    0.053015
     0.054169    0.054953    0.055534    0.057008    0.059546    0.059657
     0.060154    0.063505    0.064458    0.077786    0.091220    0.094033
     0.095144    0.100692    0.101599    0.107519    0.110888    0.130094
     0.139063    0.146057    0.151719    0.159412    0.159617    0.159713
     0.159901    0.159950    0.159957    0.159986    0.159988    0.159993
     0.160001    0.160018    0.160039    0.160055    0.160708    0.161182
     0.162552    0.163168    0.168789    0.177703    0.187194    0.213046
     0.215689    0.219919    0.219989    0.220026    0.222323    0.232513
     0.233652    0.234314    0.239219    0.287644    0.292969    0.294543
     0.301766    0.316310    0.321282    0.323229    0.338465    0.339335
     0.343660    0.345832    0.346839    0.347049    0.347240    0.347671
     0.347946    0.348024    0.348713    0.349041    0.349389    0.351186
     0.353011    0.353075    0.353132    0.353434    0.353650    0.353677
     0.354226    0.354885    0.355335    0.355437    0.355680    0.355752
     0.357036    0.359611    0.364761    0.375576    0.376205    0.380312
     0.387361    0.392575    0.403735    0.408130    0.409401    0.417346
     0.421551    0.445054    0.449901    0.452507    0.456977    0.464042
     0.470380    0.471556    0.477759    0.481358    0.484394    0.506163

 Minimum search - taking simple RFO step
 Searching for Lamda that Minimizes Along All modes
 Value Taken    Lamda =  -0.00000005
 Step Taken.  Stepsize is  0.004234

                             Maximum     Tolerance    Cnvgd?
         Gradient           0.000015      0.000020     YES
         Displacement       0.001122      0.001200     YES
         Energy change      0.000004      0.000001      NO

 Final energy is   -986.657419426105     


 ******************************
 **  OPTIMIZATION CONVERGED  **
 ******************************

                       Coordinates (Angstroms)
     ATOM                X               Y               Z
      1  C        -0.7395764014    4.9255585320    2.1111145497
      2  C        -0.6078685574    3.5713541839    1.4070403220
      3  N         0.3595977478    2.6991222012    2.0320682962
      4  H        -1.0137966720    4.8061216457    3.1607444043
      5  H         0.1845697042    5.5010478338    2.0566819023
      6  H        -1.5678847713    3.0556917024    1.4085050306
      7  H        -1.5304462992    5.4882471446    1.6147202493
      8  C         0.1034221947    2.1155617736    3.3397948685
      9  H         0.5861195826    2.7761150183    4.0726824063
     10  H         0.6467825933    1.1693606422    3.3562959151
     11  H        -0.3151860331    3.6968949784    0.3653947627
     12  C        -1.3559199750    1.8936252354    3.6855498498
     13  H        -1.8451585968    1.2644067045    2.9425708963
     14  H        -1.4008351912    1.3852392605    4.6498603811
     15  H        -1.9159314453    2.8255339782    3.7727163659
     16  C         1.7038914544    2.6266566827    1.5310065155
     17  H         2.2962384820    2.0417775195    2.2334354870
     18  H         1.6565763066    2.0404028091    0.6014537079
     19  C         2.3664594201    3.9719466070    1.2483444422
     20  H         3.3759426247    3.7741548558    0.8874873024
     21  H         1.8396601577    4.5365188136    0.4778370597
     22  H         2.4356404667    4.5793002808    2.1532321737
     23  C         3.2835884841   -0.3564933798   -0.0533242930
     24  C         4.1286622103   -0.2763947581   -1.1820546195
     25  H         3.7035028233   -0.0663614561   -2.1568884700
     26  C         5.4927805932   -0.4961704936   -1.0854688762
     27  H         6.1036396031   -0.4362900230   -1.9805006656
     28  C         6.0825274441   -0.8088517971    0.1380823125
     29  H         7.1498529447   -0.9829619891    0.2102913451
     30  C         5.2705312506   -0.8961731224    1.2650111373
     31  H         5.7075655075   -1.1337854387    2.2297515134
     32  C         3.9048886116   -0.6725059603    1.1751948818
     33  H         3.3083072511   -0.7220153133    2.0793171137
     34  C         1.8540072041   -0.0961940345   -0.1326788004
     35  C         1.2721412560    0.6755129086   -1.1845860588
     36  H         1.8944147033    1.0100615065   -2.0080665097
     37  C        -0.0425327685    1.0619663221   -1.1701572658
     38  H        -0.4098323541    1.6413557974   -2.0092596647
     39  C        -0.9412678884    0.6831850992   -0.1186738571
     40  C        -0.3787349991   -0.1942655676    0.8652539001
     41  H        -1.0097488855   -0.6022206224    1.6470971216
     42  C         0.9449742894   -0.5531728143    0.8618935361
     43  H         1.2943597926   -1.2311043887    1.6339955780
     44  C        -2.3027708873    1.1485486490   -0.0610340752
     45  C        -3.2615571353    0.6002484518    0.8345812226
     46  H        -3.0027886090   -0.2626188040    1.4375018280
     47  C        -4.5413751923    1.1139408533    0.9427257384
     48  H        -5.2366040879    0.6536403853    1.6380822942
     49  C        -4.9539381500    2.1972621025    0.1650185285
     50  H        -5.9576379635    2.5959815482    0.2520692856
     51  C        -4.0434966932    2.7400159608   -0.7411621993
     52  H        -4.3391410824    3.5757433799   -1.3681483647
     53  C        -2.7598939490    2.2353841739   -0.8579653084
     54  H        -2.0862181161    2.7070954214   -1.5635311967

Z-matrix Print:
$molecule
0 1
N 
C  1 1.436468
H  2 1.089204 1 108.124094
H  2 1.100000 1 106.343656 3 113.915977 0
C  1 1.444797 2 120.411619 3 171.147344 0
H  5 1.089242 1 107.659131 2 26.911561 0
H  5 1.089744 1 107.677198 2 141.978742 0
C  1 1.454757 2 117.265874 3 4.764424 0
H  8 1.091242 1 105.886516 2 -42.547602 0
H  8 1.098386 1 106.330471 2 71.051572 0
C  8 1.516075 1 115.673204 2 -165.184474 0
H  11 1.089628 8 111.175316 1 56.918007 0
H  11 1.090718 8 112.791082 1 -65.216900 0
H  11 1.091040 8 108.023561 1 175.694855 0
C  2 1.526008 1 115.243220 3 -124.700852 0
H  15 1.090136 2 107.663446 1 179.395547 0
H  15 1.090844 2 112.173931 1 -62.047448 0
H  15 1.092010 2 111.366399 1 60.624963 0
C  5 1.531972 1 113.104015 2 -96.276568 0
H  19 1.090044 5 111.768028 1 64.116218 0
H  19 1.090184 5 108.020270 1 -176.409934 0
H  19 1.091414 5 111.521976 1 -57.652807 0
C  4 2.267813 2 140.527841 1 -92.320310 0
C  23 1.422795 4 91.185558 2 50.060093 0
H  24 1.085266 23 119.489430 4 -115.602454 0
C  24 1.371507 23 122.296653 4 66.097869 0
H  26 1.084382 24 117.706852 23 178.768786 0
C  23 1.428499 4 72.178731 2 166.357318 0
H  28 1.085019 23 119.461252 4 100.822922 0
C  28 1.370373 23 122.368577 4 -76.422479 0
H  30 1.083833 28 117.886194 23 -179.641426 0
C  26 1.433345 24 122.500024 23 -0.995403 0
C  32 1.439992 26 122.780924 24 -174.927278 0
C  33 1.421981 32 122.555013 26 -11.209147 0
H  34 1.083981 33 119.755273 32 -5.984954 0
C  34 1.383297 33 121.996819 32 175.662764 0
H  36 1.085698 34 119.017665 33 179.618977 0
C  36 1.395930 34 121.203188 33 0.392433 0
H  38 1.083498 36 120.970910 34 179.937210 0
C  38 1.394507 36 118.107267 34 0.832356 0
H  40 1.085798 38 119.804172 36 179.290100 0
C  40 1.384172 38 121.223741 36 -0.872661 0
H  42 1.083593 40 118.214517 38 -178.779386 0
C  23 1.455251 4 103.673546 2 -73.495139 0
C  44 1.412302 23 122.281935 4 -99.185101 0
H  45 1.084055 44 119.669975 23 -3.337332 0
C  45 1.385081 44 121.639937 23 178.460345 0
H  47 1.085272 45 119.214436 44 179.268819 0
C  47 1.393789 45 120.899478 44 0.123499 0
H  49 1.083841 47 120.743874 45 179.834152 0
C  49 1.391737 47 118.557149 45 -0.000000 0
H  51 1.085441 49 119.901421 47 -179.716261 0
C  51 1.386749 49 120.796941 47 -0.229665 0
H  53 1.084342 51 118.713959 49 -178.309089 0
$end

 
 --------------------------------------------------------------
 
                    Orbital Energies (a.u.)
 --------------------------------------------------------------
 
 Alpha MOs
 -- Occupied --
-14.3788 -10.3072 -10.3064 -10.3055 -10.3050 -10.2919 -10.2916 -10.2916
-10.2911 -10.2906 -10.2905 -10.2904 -10.2902 -10.2902 -10.2898 -10.2897
-10.2897 -10.2894 -10.2894 -10.2890 -10.2848 -10.2792 -10.2616 -10.2539
-10.2518  -1.0013  -0.9791  -0.9676  -0.9486  -0.8956  -0.8596  -0.8574
 -0.8529  -0.8511  -0.8457  -0.8424  -0.8087  -0.7956  -0.7416  -0.7239
 -0.7234  -0.7025  -0.6989  -0.6968  -0.6728  -0.6700  -0.6335  -0.6318
 -0.6140  -0.5764  -0.5745  -0.5715  -0.5665  -0.5483  -0.5396  -0.5375
 -0.5350  -0.5211  -0.5190  -0.5123  -0.5100  -0.5088  -0.5038  -0.4980
 -0.4875  -0.4863  -0.4793  -0.4695  -0.4661  -0.4655  -0.4607  -0.4483
 -0.4428  -0.4392  -0.4368  -0.4311  -0.4306  -0.4223  -0.4185  -0.4144
 -0.4052  -0.4003  -0.3982  -0.3763  -0.3399  -0.3362  -0.3340  -0.3323
 -0.2791  -0.2351
 -- Virtual --
 -0.0061   0.0453   0.0559   0.0582   0.0726   0.1097   0.1133   0.1229
  0.1303   0.1336   0.1411   0.1479   0.1561   0.1614   0.1722   0.1734
  0.1763   0.1814   0.1858   0.1910   0.1966   0.1973   0.2031   0.2077
  0.2127   0.2147   0.2315   0.2350   0.2386   0.2422   0.2445   0.2492
  0.2584   0.2626   0.2670   0.2693   0.2725   0.2839   0.2907   0.2922
  0.2957   0.3095   0.3101   0.3149   0.3204   0.3228   0.3283   0.3503
  0.3523   0.3525   0.3586   0.3660   0.3691   0.3801   0.3850   0.3870
  0.4008   0.4037   0.4056   0.4108   0.4139   0.4183   0.4208   0.4286
  0.4329   0.4372   0.4498   0.4544   0.4647   0.4663   0.4676   0.4756
  0.4798   0.4855   0.4896   0.4919   0.4980   0.5027   0.5041   0.5094
  0.5147   0.5161   0.5222   0.5251   0.5300   0.5320   0.5342   0.5423
  0.5445   0.5496   0.5571   0.5608   0.5665   0.5758   0.5810   0.5841
  0.5956   0.6087   0.6122   0.6137   0.6299   0.6311   0.6391   0.6441
  0.6494   0.6516   0.6573   0.6591   0.6639   0.6706   0.6737   0.6781
  0.6794   0.6848   0.6857   0.6881   0.6890   0.6917   0.6981   0.6998
  0.7069   0.7076   0.7099   0.7181   0.7203   0.7247   0.7250   0.7279
  0.7306   0.7356   0.7373   0.7422   0.7479   0.7510   0.7570   0.7626
  0.7643   0.7725   0.7809   0.7851   0.7971   0.8074   0.8165   0.8221
  0.8242   0.8282   0.8308   0.8356   0.8402   0.8482   0.8549   0.8641
  0.8760   0.8851   0.8911   0.8941   0.9016   0.9061   0.9106   0.9216
  0.9241   0.9359   0.9369   0.9449   0.9480   0.9603   0.9686   0.9723
  0.9865   0.9969   1.0021   1.0105   1.0207   1.0235   1.0356   1.0418
  1.0511   1.0639   1.0710   1.0755   1.0949   1.0971   1.0997   1.1069
  1.1100   1.1288   1.1381   1.1398   1.1513   1.1541   1.1570   1.1645
  1.1706   1.1756   1.1788   1.1917   1.2098   1.2146   1.2182   1.2224
  1.2327   1.2457   1.2521   1.2586   1.2699   1.2957   1.3026   1.3077
  1.3346   1.3430   1.3458   1.3534   1.3589   1.3790   1.3816   1.4053
  1.4135   1.4261   1.4488   1.4863   1.4966   1.5029   1.5181   1.5213
  1.5320   1.5364   1.5403   1.5431   1.5478   1.5499   1.5551   1.5613
  1.5695   1.5761   1.5800   1.5858   1.5909   1.5950   1.6046   1.6157
  1.6212   1.6278   1.6368   1.6391   1.6394   1.6470   1.6499   1.6507
  1.6554   1.6630   1.6694   1.6706   1.6789   1.6860   1.6921   1.6933
  1.7047   1.7111   1.7164   1.7176   1.7252   1.7279   1.7417   1.7462
  1.7493   1.7509   1.7599   1.7658   1.7786   1.7851   1.7906   1.7975
  1.8019   1.8094   1.8177   1.8221   1.8286   1.8349   1.8427   1.8499
  1.8515   1.8561   1.8593   1.8684   1.8740   1.8761   1.8831   1.8857
  1.8917   1.9007   1.9107   1.9148   1.9248   1.9273   1.9387   1.9519
  1.9617   1.9760   1.9790   1.9850   1.9918   2.0000   2.0036   2.0070
  2.0130   2.0155   2.0192   2.0203   2.0268   2.0355   2.0388   2.0437
  2.0459   2.0616   2.0623   2.0794   2.0822   2.0900   2.0956   2.1079
  2.1106   2.1184   2.1294   2.1384   2.1439   2.1588   2.1650   2.1675
  2.1725   2.1799   2.1823   2.1986   2.2057   2.2185   2.2252   2.2482
  2.2587   2.2824   2.2885   2.2986   2.3071   2.3213   2.3345   2.3507
  2.3615   2.3721   2.3842   2.3968   2.3994   2.4049   2.4090   2.4177
  2.4272   2.4336   2.4387   2.4479   2.4639   2.4711   2.4769   2.4841
  2.4943   2.4986   2.5017   2.5057   2.5132   2.5198   2.5259   2.5391
  2.5424   2.5484   2.5577   2.5710   2.5943   2.6084   2.6190   2.6397
  2.6474   2.6573   2.6583   2.6691   2.6749   2.6845   2.6881   2.6903
  2.6932   2.6993   2.7019   2.7076   2.7093   2.7166   2.7210   2.7228
  2.7273   2.7335   2.7398   2.7446   2.7497   2.7519   2.7583   2.7640
  2.7700   2.7734   2.7751   2.7870   2.7917   2.8058   2.8120   2.8137
  2.8218   2.8282   2.8326   2.8472   2.8501   2.8601   2.8712   2.8716
  2.8809   2.8917   2.8954   2.9107   2.9168   2.9197   2.9210   2.9372
  2.9482   2.9573   2.9667   2.9858   2.9928   3.0027   3.0083   3.0109
  3.0126   3.0238   3.0270   3.0347   3.0478   3.0604   3.0730   3.0770
  3.0866   3.0913   3.1138   3.1376   3.1429   3.1694   3.1852   3.2023
  3.2203   3.2442   3.2856   3.3112   3.3328   3.3472   3.3775   3.3882
  3.4146   3.4412   3.4508   3.4701   3.4834   3.5042   3.5533   3.5760
  3.5856   3.5948   3.6032   3.6090   3.6565   3.6880   3.6918   3.7136
  3.7183   3.7492   3.7603   3.8443   3.8698   3.8980   3.9113   3.9164
  3.9269   3.9430   3.9512   3.9598   3.9642   4.0080   4.0310   4.0688
  4.0730   4.1225   4.1304   4.1344   4.1884   4.2271   4.2348   4.2420
  4.2675   4.2787   4.2961   4.3239   4.3565   4.4323   4.5569   4.7677
  4.8803   4.9268   4.9558   5.0949   5.1114  23.6118  23.7333  23.8850
 23.9870  24.0113  24.0238  24.0413  24.0472  24.0560  24.0603  24.0689
 24.0878  24.0956  24.1063  24.1170  24.1369  24.1705  24.1843  24.2440
 24.2466  24.2846  24.3219  24.3255  24.3279  35.7332
 --------------------------------------------------------------
 
          Ground-State Mulliken Net Atomic Charges

     Atom                 Charge (a.u.)
  ----------------------------------------
      1 C                    -0.295339
      2 C                    -0.158093
      3 N                    -0.409782
      4 H                     0.108565
      5 H                     0.112029
      6 H                     0.148727
      7 H                     0.101606
      8 C                    -0.087603
      9 H                     0.099189
     10 H                     0.109338
     11 H                     0.121007
     12 C                    -0.350451
     13 H                     0.108412
     14 H                     0.121571
     15 H                     0.121731
     16 C                    -0.097196
     17 H                     0.109563
     18 H                     0.148356
     19 C                    -0.340656
     20 H                     0.112219
     21 H                     0.115132
     22 H                     0.113296
     23 C                    -0.012412
     24 C                    -0.098648
     25 H                     0.122986
     26 C                    -0.121858
     27 H                     0.121992
     28 C                    -0.112909
     29 H                     0.123868
     30 C                    -0.124739
     31 H                     0.122027
     32 C                    -0.103229
     33 H                     0.123569
     34 C                    -0.093545
     35 C                    -0.128744
     36 H                     0.114512
     37 C                    -0.098148
     38 H                     0.120410
     39 C                    -0.018238
     40 C                    -0.078764
     41 H                     0.119895
     42 C                    -0.099074
     43 H                     0.119276
     44 C                    -0.051840
     45 C                    -0.125503
     46 H                     0.131681
     47 C                    -0.110378
     48 H                     0.121332
     49 C                    -0.112280
     50 H                     0.124005
     51 C                    -0.113292
     52 H                     0.121246
     53 C                    -0.113903
     54 H                     0.119084
  ----------------------------------------
  Sum of atomic charges =     0.000000

 -----------------------------------------------------------------
                    Cartesian Multipole Moments
 -----------------------------------------------------------------
    Charge (ESU x 10^10)
                 0.0000
    Dipole Moment (Debye)
         X      -0.1007      Y      -0.2131      Z      -0.0205
       Tot       0.2366
    Quadrupole Moments (Debye-Ang)
        XX    -136.4265     XY      -5.7030     YY    -157.2303
        XZ      -3.3246     YZ     -11.0278     ZZ    -143.9535
    Octopole Moments (Debye-Ang^2)
       XXX    -160.7965    XXY    -193.2581    XYY     -96.4876
       YYY    -605.1983    XXZ     -91.7849    XYZ       1.2945
       YYZ    -128.2781    XZZ     -43.2141    YZZ    -203.2175
       ZZZ    -312.5883
    Hexadecapole Moments (Debye-Ang^3)
      XXXX   -7870.2050   XXXY     539.4708   XXYY   -2213.7553
      XYYY     816.4718   YYYY   -4486.7480   XXXZ     -25.8995
      XXYZ    -334.5599   XYYZ      78.7226   YYYZ    -894.3543
      XXZZ   -1772.0858   XYZZ     267.3547   YYZZ   -1137.2107
      XZZZ      65.9709   YZZZ    -824.3465   ZZZZ   -2380.4955
 -----------------------------------------------------------------
 Total job time:  105036.36s(wall), 1303070.86s(cpu) 
 Thu Sep 15 07:34:57 2022

        *************************************************************
        *                                                           *
        *  Thank you very much for using Q-Chem.  Have a nice day.  *
        *                                                           *
        *************************************************************


2022-09-15 07:35:03,988 INFO Rocket finished
/home1/patraa/.local/lib/python3.8/site-packages/pymatgen/core/__init__.py:49: UserWarning: Error loading .pmgrc.yaml: [Errno 2] No such file or directory: '/home1/patraa/.pmgrc.yaml'. You may need to reconfigure your yaml file.
  warnings.warn(f"Error loading .pmgrc.yaml: {ex}. You may need to reconfigure your yaml file.")
