==========================================
SLURM_JOB_ID = 12490499
SLURM_JOB_NODELIST = a01-09
TMPDIR = /tmp/SLURM_12490499
==========================================

Due to MODULEPATH changes, the following have been reloaded:
  1) pmix/3.1.3

-------------------------------------------------------------------------------
There are messages associated with the following module(s):
-------------------------------------------------------------------------------

anaconda3/2021.05:
   This module is deprecated and will be removed in mid-December. Please use
   module load conda instead and run conda init bash again to update your
   shell to use the newer version of conda. Your conda environments will not
   be impacted.

-------------------------------------------------------------------------------

a01-09.hpc.usc.edu
You are running Q-Chem version: 5.4.2

#
# job setting
#
local host:  a01-09.hpc.usc.edu
current dir: /scratch2/patraa/workflow/cyclohexane/wB97_6311g_opt/ex_charge/charge_fsm_all
input file:  e_5.87_1.0_-1.inp
output file: 
nprocs     : 0
nthreads   : 32
#
# qchem installation setting
#
QC:          /spack/apps/linux-centos7-x86_64/gcc-8.3.0/qchem-5.4.2/openmp
QCAUX:       /spack/apps/linux-centos7-x86_64/gcc-8.3.0/qchem-5.4.2/openmp/qcaux
QCPROG:      /spack/apps/linux-centos7-x86_64/gcc-8.3.0/qchem-5.4.2/openmp/exe/qcprog.exe_s
QCPROG_S:    /spack/apps/linux-centos7-x86_64/gcc-8.3.0/qchem-5.4.2/openmp/exe/qcprog.exe_s
PARALLEL:    -DSERIAL
QCMPI:       
#
# qchem directory setting
#
qcrun:       qchem31790
QCSCRATCH:   /scratch1/patraa
QCLOCALSCR:  /tmp/SLURM_12490499
QCTMPDIR:    /tmp/SLURM_12490499
QCFILEPREF:  /tmp/SLURM_12490499/qchem31790
QCSAVEDIR:   
workdirs:    /tmp/SLURM_12490499/qchem31790
workdir0:    /tmp/SLURM_12490499/qchem31790
partmpdirs =  
#
# parallel setting
#
QCRSH:           ssh
QCMPI:           mpich
QCMPIRUN:        /spack/apps/linux-centos7-x86_64/gcc-8.3.0/qchem-5.4.2/openmp/bin/mpi/mpirun_qchem
QCMACHINEFILE:   /tmp/SLURM_12490499/qchem31790/hostfile

#
# env setting
#
exported envs:   QC QCAUX QCSCRATCH QCRUNNAME QCFILEPREF QCPROG QCPROG_S GUIFILE

Running Job 1 of 1 e_5.87_1.0_-1.inp
qchem e_5.87_1.0_-1.inp_31790.0 /tmp/SLURM_12490499/qchem31790/ 0
/spack/apps/linux-centos7-x86_64/gcc-8.3.0/qchem-5.4.2/openmp/exe/qcprog.exe_s e_5.87_1.0_-1.inp_31790.0 /tmp/SLURM_12490499/qchem31790/
                  Welcome to Q-Chem
     A Quantum Leap Into The Future Of Chemistry


 Q-Chem 5.4, Q-Chem, Inc., Pleasanton, CA (2021)

 License issued to: University of Southern California

 E. Epifanovsky,  A. T. B. Gilbert,  Xintian Feng,  Joonho Lee,  Yuezhi Mao,  
 N. Mardirossian,  P. Pokhilko,  A. White,  M. Wormit,  M. P. Coons,  
 A. L. Dempwolff,  Zhengting Gan,  D. Hait,  P. R. Horn,  L. D. Jacobson,  
 I. Kaliman,  J. Kussmann,  A. W. Lange,  Ka Un Lao,  D. S. Levine,  Jie Liu,  
 S. C. McKenzie,  A. F. Morrison,  K. Nanda,  F. Plasser,  D. R. Rehn,  
 M. L. Vidal,  Zhi-Qiang You,  Ying Zhu,  B. Alam,  B. Albrecht,  
 A. Aldossary,  E. Alguire,  J. H. Andersen,  D. Barton,  K. Begam,  A. Behn,  
 Y. A. Bernard,  E. J. Berquist,  H. Burton,  A. Carreras,  K. Carter-Fenk,  
 Romit Chakraborty,  A. D. Chien,  K. D. Closser,  V. Cofer-Shabica,  
 S. Dasgupta,  Jia Deng,  M. de Wergifosse,  M. Diedenhofen,  Hainam Do,  
 S. Ehlert,  Po-Tung Fang,  S. Fatehi,  Qingguo Feng,  T. Friedhoff,  
 J. Gayvert,  Qinghui Ge,  G. Gidofalvi,  M. Goldey,  J. Gomes,  
 C. Gonzalez-Espinoza,  S. Gulania,  A. Gunina,  M. W. D. Hanson-Heine,  
 P. H. P. Harbach,  A. W. Hauser,  M. F. Herbst,  M. Hernandez Vera,  
 M. Hodecker,  Z. C. Holden,  S. Houck,  Xunkun Huang,  Kerwin Hui,  
 B. C. Huynh,  M. Ivanov,  Hyunjun Ji,  Hanjie Jiang,  B. Kaduk,  S. Kaehler,  
 K. Khistyaev,  Jaehoon Kim,  P. Klunzinger,  Z. Koczor-Benda,  
 Joong Hoon Koh,  D. Kosenkov,  L. Koulias,  T. Kowalczyk,  C. M. Krauter,  
 K. Kue,  A. Kunitsa,  T. Kus,  A. Landau,  K. V. Lawler,  D. Lefrancois,  
 S. Lehtola,  Rain Li,  Yi-Pei Li,  Jiashu Liang,  M. Liebenthal,  
 Hung-Hsuan Lin,  You-Sheng Lin,  Fenglai Liu,  Kuan-Yu Liu,  
 M. Loipersberger,  A. Luenser,  A. Manjanath,  P. Manohar,  E. Mansoor,  
 S. F. Manzer,  Shan-Ping Mao,  A. V. Marenich,  T. Markovich,  S. Mason,  
 S. A. Maurer,  P. F. McLaughlin,  M. F. S. J. Menger,  J.-M. Mewes,  
 S. A. Mewes,  P. Morgante,  J. W. Mullinax,  K. J. Oosterbaan,  G. Paran,  
 Alexander C. Paul,  Suranjan K. Paul,  F. Pavosevic,  Zheng Pei,  S. Prager,  
 E. I. Proynov,  E. Ramos,  B. Rana,  A. E. Rask,  A. Rettig,  R. M. Richard,  
 F. Rob,  E. Rossomme,  T. Scheele,  M. Scheurer,  M. Schneider,  
 N. Sergueev,  S. M. Sharada,  W. Skomorowski,  D. W. Small,  C. J. Stein,  
 Yu-Chuan Su,  E. J. Sundstrom,  Zhen Tao,  J. Thirman,  T. Tsuchimochi,  
 N. M. Tubman,  S. P. Veccham,  O. Vydrov,  J. Wenzel,  J. Witte,  A. Yamada,  
 Kun Yao,  S. Yeganeh,  S. R. Yost,  A. Zech,  Igor Ying Zhang,  Xing Zhang,  
 Yu Zhang,  D. Zuev,  A. Aspuru-Guzik,  A. T. Bell,  N. A. Besley,  
 K. B. Bravaya,  B. R. Brooks,  D. Casanova,  Jeng-Da Chai,  S. Coriani,  
 C. J. Cramer,  A. E. DePrince, III,  R. A. DiStasio Jr.,  A. Dreuw,  
 B. D. Dunietz,  T. R. Furlani,  W. A. Goddard III,  S. Grimme,  
 S. Hammes-Schiffer,  T. Head-Gordon,  W. J. Hehre,  Chao-Ping Hsu,  
 T.-C. Jagau,  Yousung Jung,  A. Klamt,  Jing Kong,  D. S. Lambrecht,  
 WanZhen Liang,  N. J. Mayhall,  C. W. McCurdy,  J. B. Neaton,  T. Neudecker,  
 C. Ochsenfeld,  J. A. Parkhill,  R. Peverati,  V. A. Rassolov,  Yihan Shao,  
 L. V. Slipchenko,  R. P. Steele,  J. E. Subotnik,  A. J. W. Thom,  
 A. Tkatchenko,  D. G. Truhlar,  T. Van Voorhis,  T. A. Wesolowski,  
 K. B. Whaley,  H. L. Woodcock III,  P. M. Zimmerman,  S. Faraji,  
 P. M. W. Gill,  M. Head-Gordon,  J. M. Herbert,  A. I. Krylov

 Additional authors since Version 5.4.0: 
 Chandrima Chakravarty,  L. Cunha,  R. Kang,  Yongbin Kim,  S. Kotaru,  
 Shaozhi Li,  Xiangyuan Li,  F. Matz,  A. Molle,  V. Parravicini,  
 Haisheng Ren,  Hengyuan Shen,  Yingli Su,  Hung-Yi Tsai,  C. Utku,  
 Fang Wang,  Jeff Yang,  F. Zeller

 Contributors to earlier versions of Q-Chem not listed above: 
 R. D. Adamson,  B. Austin,  R. Baer,  J. Baker,  G. J. O. Beran,  
 K. Brandhorst,  S. T. Brown,  E. F. C. Byrd,  Arup K. Chakraborty,  
 G. K. L. Chan,  Chun-Min Chang,  Yunqing Chen,  C.-L. Cheng,  
 Siu Hung Chien,  D. M. Chipman,  D. L. Crittenden,  H. Dachsel,  
 R. J. Doerksen,  A. D. Dutoi,  R. G. Edgar,  J. Fosso-Tande,  
 L. Fusti-Molnar,  D. Ghosh,  A. Ghysels,  A. Golubeva-Zadorozhnaya,  
 J. Gonthier,  M. S. Gordon,  S. R. Gwaltney,  G. Hawkins,  J. E. Herr,  
 A. Heyden,  S. Hirata,  E. G. Hohenstein,  G. Kedziora,  F. J. Keil,  
 C. Kelley,  Jihan Kim,  R. A. King,  R. Z. Khaliullin,  P. P. Korambath,  
 W. Kurlancheek,  A. Laurent,  A. M. Lee,  M. S. Lee,  S. V. Levchenko,  
 Ching Yeh Lin,  D. Liotard,  E. Livshits,  R. C. Lochan,  I. Lotan,  
 L. A. Martinez-Martinez,  P. E. Maslen,  N. Nair,  D. P. O'Neill,  
 D. Neuhauser,  E. Neuscamman,  C. M. Oana,  R. Olivares-Amaya,  R. Olson,  
 T. M. Perrine,  B. Peters,  P. A. Pieniazek,  A. Prociuk,  Y. M. Rhee,  
 J. Ritchie,  M. A. Rohrdanz,  E. Rosta,  N. J. Russ,  H. F. Schaefer III,  
 M. W. Schmidt,  N. E. Schultz,  S. Sharma,  N. Shenvi,  C. D. Sherrill,  
 A. C. Simmonett,  A. Sodt,  T. Stein,  D. Stuck,  K. S. Thanthiriwatte,  
 V. Vanovschi,  L. Vogt,  Tao Wang,  A. Warshel,  M. A. Watson,  
 C. F. Williams,  Q. Wu,  X. Xu,  Jun Yang,  W. Zhang,  Yan Zhao

   Please cite Q-Chem as follows:
  "Software for the frontiers of quantum chemistry:
   An overview of developments in the Q-Chem 5 package"
   J. Chem. Phys. 155, 084801 (2021)
   https://doi.org/10.1063/5.0055522 (open access)

 Q-Chem 5.4.2 for Intel X86 EM64T Linux

 Parts of Q-Chem use Armadillo 9.900.5 (Nocturnal Misbehaviour).
 http://arma.sourceforge.net/

 Q-Chem begins on Fri Nov 25 08:32:32 2022  

 Host: 
0

     Scratch files written to /tmp/SLURM_12490499/qchem31790//
 Dec1321 |scratch|qcdevops|jenkins|workspace|build_RNUM 6013   
 Processing $rem in /spack/apps/linux-centos7-x86_64/gcc-8.3.0/qchem-5.4.2/openmp/config/preferences:
 Processing $rem in /home1/patraa/.qchemrc:
 Symmetry turned off for PCM/SM12/SMD calculation

 Checking the input file for inconsistencies... 	...done.

--------------------------------------------------------------
User input:
--------------------------------------------------------------
$molecule
0 1
C      2.6302422690      4.5765983056      1.0360202725
C      3.1071480250      3.1430577752      0.7673265751
N      4.5334035432      2.9890617388      0.8622862533
H      2.9892113727      4.9409467179      2.0008032062
H      2.9537872810      5.2645393087      0.2538926867
H      2.6317974116      2.4553749962      1.4591842251
H      1.5403493137      4.5648944767      1.0505166773
C      5.2024568383      2.5139461408      2.0495656330
H      5.9559415752      3.2618408306      2.3176602297
H      5.7699332778      1.6195021251      1.7424613648
H      2.8117806646      2.8382123665     -0.2394602148
C      4.3140132009      2.2004401360      3.2356136063
H      3.6270033264      1.3831386944      3.0161055749
H      4.9541899818      1.8820196823      4.0595389144
H      3.7454689823      3.0734971016      3.5645536214
C      5.3780750485      3.5485901120     -0.1828762817
H      6.1946384201      2.8444806550     -0.3396512830
H      4.7853605209      3.5842421439     -1.0958940581
C      5.9378655668      4.9325889923      0.1572387181
H      6.5264956013      5.2796105516     -0.6928263085
H      5.1470152688      5.6583038434      0.3458344090
H      6.5946675674      4.8983471774      1.0278931962
C      3.7554601108     -0.0640961787      0.2327306623
C      4.7465138465      0.3097951638     -0.7400803491
H      4.4378777251      0.7572281445     -1.6772901296
C      6.0950747576      0.1288932857     -0.5115775444
H      6.8049182994      0.4347275260     -1.2752815690
C      6.5665241779     -0.4245017893      0.6853467350
H      7.6260152386     -0.5747059256      0.8540031922
C      5.6109672677     -0.8890618448      1.6173911206
H      5.9466869661     -1.3917553687      2.5195352877
C      4.2655963308     -0.7208654212      1.4044958372
H      3.5737852142     -1.1178254042      2.1382212210
C      2.3716345813      0.2363947452      0.0620982677
C      1.8415616448      0.7548619152     -1.1638243261
H      2.4493149872      0.7468143044     -2.0611856804
C      0.5532214146      1.2313896170     -1.2596539304
H      0.2057647987      1.5896849016     -2.2241293555
C     -0.3349722567      1.2280006827     -0.1664675698
C      0.1499220726      0.6455221714      1.0257755442
H     -0.4927584665      0.6076631432      1.9000884446
C      1.4316045237      0.1620744934      1.1391261081
H      1.7424332300     -0.2392197523      2.0968717538
C     -1.6893490338      1.7893253875     -0.2669867802
C     -2.7487499627      1.3077685764      0.5206571177
H     -2.5764839422      0.4787272700      1.1979814690
C     -4.0226689509      1.8498788211      0.4287460108
H     -4.8185438745      1.4500349884      1.0482111883
C     -4.2888007710      2.8864604469     -0.4607092354
H     -5.2850833021      3.3073930200     -0.5344232119
C     -3.2549931828      3.3749305308     -1.2530048250
H     -3.4421966267      4.1863919163     -1.9485077327
C     -1.9779952056      2.8409291645     -1.1535780011
H     -1.1826246694      3.2609085964     -1.7594627376
$end

$rem
basis = 6-311g**
cis_state_deriv = 1
job_type = sp
method = wb97xd
cis_n_roots = 10
cis_singlets = 1
cis_triplets = 0
rpa = 2
pop_mulliken = -1
solvent_method = pcm
scf_convergence = 8
symmetry = false
symmetry_ignore = 1
thresh = 14
$end

$pcm
heavypoints 590
method swig
radii bondi
solver inversion
theory cpcm
$end

$solvent
dielectric 2.03
opticaldielectric 2.01
$end
--------------------------------------------------------------
 ----------------------------------------------------------------
             Standard Nuclear Orientation (Angstroms)
    I     Atom           X                Y                Z
 ----------------------------------------------------------------
    1      C       2.6302422690     4.5765983056     1.0360202725
    2      C       3.1071480250     3.1430577752     0.7673265751
    3      N       4.5334035432     2.9890617388     0.8622862533
    4      H       2.9892113727     4.9409467179     2.0008032062
    5      H       2.9537872810     5.2645393087     0.2538926867
    6      H       2.6317974116     2.4553749962     1.4591842251
    7      H       1.5403493137     4.5648944767     1.0505166773
    8      C       5.2024568383     2.5139461408     2.0495656330
    9      H       5.9559415752     3.2618408306     2.3176602297
   10      H       5.7699332778     1.6195021251     1.7424613648
   11      H       2.8117806646     2.8382123665    -0.2394602148
   12      C       4.3140132009     2.2004401360     3.2356136063
   13      H       3.6270033264     1.3831386944     3.0161055749
   14      H       4.9541899818     1.8820196823     4.0595389144
   15      H       3.7454689823     3.0734971016     3.5645536214
   16      C       5.3780750485     3.5485901120    -0.1828762817
   17      H       6.1946384201     2.8444806550    -0.3396512830
   18      H       4.7853605209     3.5842421439    -1.0958940581
   19      C       5.9378655668     4.9325889923     0.1572387181
   20      H       6.5264956013     5.2796105516    -0.6928263085
   21      H       5.1470152688     5.6583038434     0.3458344090
   22      H       6.5946675674     4.8983471774     1.0278931962
   23      C       3.7554601108    -0.0640961787     0.2327306623
   24      C       4.7465138465     0.3097951638    -0.7400803491
   25      H       4.4378777251     0.7572281445    -1.6772901296
   26      C       6.0950747576     0.1288932857    -0.5115775444
   27      H       6.8049182994     0.4347275260    -1.2752815690
   28      C       6.5665241779    -0.4245017893     0.6853467350
   29      H       7.6260152386    -0.5747059256     0.8540031922
   30      C       5.6109672677    -0.8890618448     1.6173911206
   31      H       5.9466869661    -1.3917553687     2.5195352877
   32      C       4.2655963308    -0.7208654212     1.4044958372
   33      H       3.5737852142    -1.1178254042     2.1382212210
   34      C       2.3716345813     0.2363947452     0.0620982677
   35      C       1.8415616448     0.7548619152    -1.1638243261
   36      H       2.4493149872     0.7468143044    -2.0611856804
   37      C       0.5532214146     1.2313896170    -1.2596539304
   38      H       0.2057647987     1.5896849016    -2.2241293555
   39      C      -0.3349722567     1.2280006827    -0.1664675698
   40      C       0.1499220726     0.6455221714     1.0257755442
   41      H      -0.4927584665     0.6076631432     1.9000884446
   42      C       1.4316045237     0.1620744934     1.1391261081
   43      H       1.7424332300    -0.2392197523     2.0968717538
   44      C      -1.6893490338     1.7893253875    -0.2669867802
   45      C      -2.7487499627     1.3077685764     0.5206571177
   46      H      -2.5764839422     0.4787272700     1.1979814690
   47      C      -4.0226689509     1.8498788211     0.4287460108
   48      H      -4.8185438745     1.4500349884     1.0482111883
   49      C      -4.2888007710     2.8864604469    -0.4607092354
   50      H      -5.2850833021     3.3073930200    -0.5344232119
   51      C      -3.2549931828     3.3749305308    -1.2530048250
   52      H      -3.4421966267     4.1863919163    -1.9485077327
   53      C      -1.9779952056     2.8409291645    -1.1535780011
   54      H      -1.1826246694     3.2609085964    -1.7594627376
 ----------------------------------------------------------------
 Nuclear Repulsion Energy =        2142.17005053 hartrees
 There are       90 alpha and       90 beta electrons
 Requested basis set is 6-311G(d,p)
 There are 241 shells and 624 basis functions

 Total QAlloc Memory Limit   8000 MB
 Mega-Array Size       188 MB
 MEM_STATIC part       192 MB
 Discretize the solute cavity surface with Lebedev spheres
	Using 110 Lebedev grid points for each H atom
	Using 590 Lebedev grid points for other atoms
	Atomic van der Waals radii will be scaled by 1.20
 Remove points where switching function is < 1.0e-08
 Keep 5861 surface tesserae and discard 12079 interior tesserae
 Molecular Surface Area = 401.071 Angst**2
 A cutoff of  1.0D-14 yielded  19185 shell pairs
 There are    129544 function pairs (    139771 Cartesian)
 Smallest overlap matrix eigenvalue = 1.28E-04

 Scale SEOQF with 1.000000e-02/1.000000e-02/1.000000e-01

 Standard Electronic Orientation quadrupole field applied
 Nucleus-field energy     =    -0.0000000134 hartrees
 Guess from superposition of atomic densities
 Warning:  Energy on first SCF cycle will be non-variational
 SAD guess density has 180.000000 electrons

 -----------------------------------------------------------------------
  General SCF calculation program by
  Eric Jon Sundstrom, Paul Horn, Yuezhi Mao, Dmitri Zuev, Alec White,
  David Stuck, Shaama M.S., Shane Yost, Joonho Lee, David Small,
  Daniel Levine, Susi Lehtola, Hugh Burton, Evgeny Epifanovsky,
  Bang C. Huynh
 -----------------------------------------------------------------------
 Exchange:     0.2220 Hartree-Fock + 1.0000 wB97X-D + LR-HF
 Correlation:  1.0000 wB97X-D
 Using SG-2 standard quadrature grid
 Dispersion:   Grimme D
 using 32 threads for integral computing
 -------------------------------------------------------
 OpenMP Integral computing Module                
 Release: version 1.0, May 2013, Q-Chem Inc. Pittsburgh 
 -------------------------------------------------------
 A restricted SCF calculation will be
 performed using DIIS
 SCF converges when DIIS error is below 1.0e-08
 ---------------------------------------
  Cycle       Energy         DIIS error
 ---------------------------------------
    1    -994.6360172966      2.78e-02  
    2    -986.4555110863      1.93e-03  
    3    -986.5697153436      1.37e-03  
    4    -986.6551466388      2.10e-04  
    5    -986.6567135191      1.21e-04  
    6    -986.6573432218      1.81e-05  
    7    -986.6573607221      6.50e-06  
    8    -986.6573634314      2.92e-06  
    9    -986.6573640998      9.49e-07  
   10    -986.6573641864      2.66e-07  
   11    -986.6573641987      9.70e-08  
   12    -986.6573641997      3.69e-08  
   13    -986.6573641999      1.20e-08  
   14    -986.6573642000      5.22e-09  Convergence criterion met
 ---------------------------------------
 SCF time:   CPU 4957.51s  wall 312.00s 

************** Final PCM Free Energy Summary **************
 G_electrostatic  =      -0.00671316 hartree =      -4.21257012 kcal/mol
 G_cavitation     =       0.00000000 hartree =       0.00000000 kcal/mol
 G_dispersion     =       0.00000000 hartree =       0.00000000 kcal/mol
 G_repulsion      =       0.00000000 hartree =       0.00000000 kcal/mol
 --------------------------------------------------
 Non-electrostatic Free Energy =       0.00000000 hartree =       0.00000000 kcal/mol
 Total                         =      -0.00671316 hartree =      -4.21257012 kcal/mol
 --------------------------------------------------
 SCF Energy (H0 + V/2)                       =    -986.65736420 
 Solute Internal Energy (H0)                 =    -986.65065104 
 Total Free Energy (H0 + V/2 + non-elec)     =    -986.65736420 hartree
                                             = -619136.84066737 kcal/mol
***********************************************************

 SCF   energy in the final basis set =     -986.6573642000
 Total energy in the final basis set =     -986.6573642000
 
 MAX_CIS_SUBSPACE fits in available memory
 Adding PCM contribution to the XC response (LR-PCM)
 CIS energy converged when residual is below 10e- 6

 Direct TDDFT calculation will be performed
 Exchange:     0.2220 Hartree-Fock + 1.0000 wB97X-D + LR-HF
 Correlation:  1.0000 wB97X-D
 Using SG-2 standard quadrature grid
 Dispersion:   Grimme D
 ---------------------------------------------------
 Iter    Rts Conv    Rts Left    Ttl Dev     Max Dev
 ---------------------------------------------------
   1         0          10      0.004339    0.000706
   2         0          10      0.001593    0.000248
   3         0          10      0.001460    0.000252
   4         0          10      0.000968    0.000187
   5         0          10      0.000646    0.000142
   6         0          10      0.000376    0.000080
   7         0          10      0.000200    0.000049
   8         0          10      0.000123    0.000040
   9         2           8      0.000055    0.000013
  10         4           6      0.000036    0.000012
  11         5           5      0.000019    0.000007
  12         6           4      0.000012    0.000003
  13         8           2      0.000008    0.000002
  14        10           0      0.000007    0.000001    Roots Converged
 ---------------------------------------------------
 
 ---------------------------------------------------
             TDDFT Excitation Energies              
 ---------------------------------------------------

 Excited state   1: excitation energy (eV) =    3.0146
 Total energy for state  1:                  -986.54658140 au
    Multiplicity: Singlet 
    Trans. Mom.:  1.1122 X  -0.2661 Y   0.1123 Z
    Strength   :     0.0975277856
    X: D(   90) --> V(    1) amplitude =  0.9631
    X: D(   90) --> V(    3) amplitude = -0.2426

 Excited state   2: excitation energy (eV) =    3.9934
 Total energy for state  2:                  -986.51060862 au
    Multiplicity: Singlet 
    Trans. Mom.: -3.1597 X   0.8476 Y  -0.3748 Z
    Strength   :     1.0607996657
    X: D(   89) --> V(    1) amplitude =  0.9679

 Excited state   3: excitation energy (eV) =    4.1611
 Total energy for state  3:                  -986.50444611 au
    Multiplicity: Singlet 
    Trans. Mom.: -0.4800 X   0.2663 Y  -0.0964 Z
    Strength   :     0.0316643466
    X: D(   90) --> V(    2) amplitude =  0.8229
    X: D(   90) --> V(    4) amplitude = -0.3919
    X: D(   90) --> V(    5) amplitude = -0.2885

 Excited state   4: excitation energy (eV) =    4.6833
 Total energy for state  4:                  -986.48525485 au
    Multiplicity: Singlet 
    Trans. Mom.: -0.0539 X   0.0577 Y   0.0459 Z
    Strength   :     0.0009572493
    X: D(   85) --> V(    1) amplitude = -0.4817
    X: D(   86) --> V(    1) amplitude = -0.2339
    X: D(   89) --> V(    2) amplitude =  0.5401
    X: D(   89) --> V(    5) amplitude =  0.2415
    X: D(   90) --> V(    5) amplitude = -0.4556

 Excited state   5: excitation energy (eV) =    4.9248
 Total energy for state  5:                  -986.47638181 au
    Multiplicity: Singlet 
    Trans. Mom.: -0.0899 X   0.0468 Y  -0.1149 Z
    Strength   :     0.0028318137
    X: D(   87) --> V(    1) amplitude =  0.4955
    X: D(   88) --> V(    1) amplitude =  0.2686
    X: D(   89) --> V(    2) amplitude =  0.3677
    X: D(   90) --> V(    2) amplitude =  0.3878
    X: D(   90) --> V(    5) amplitude =  0.3770

 Excited state   6: excitation energy (eV) =    5.1306
 Total energy for state  6:                  -986.46881900 au
    Multiplicity: Singlet 
    Trans. Mom.: -0.0007 X  -0.0540 Y   0.1226 Z
    Strength   :     0.0022548142
    X: D(   85) --> V(    1) amplitude = -0.3571
    X: D(   86) --> V(    1) amplitude =  0.4259
    X: D(   86) --> V(    3) amplitude =  0.3675
    X: D(   88) --> V(    4) amplitude =  0.3122
    X: D(   89) --> V(    4) amplitude = -0.4543

 Excited state   7: excitation energy (eV) =    5.1567
 Total energy for state  7:                  -986.46786008 au
    Multiplicity: Singlet 
    Trans. Mom.:  0.0037 X  -0.2647 Y   0.2430 Z
    Strength   :     0.0163127999
    X: D(   90) --> V(    3) amplitude =  0.6365
    X: D(   90) --> V(    5) amplitude =  0.4532
    X: D(   90) --> V(    6) amplitude =  0.3105

 Excited state   8: excitation energy (eV) =    5.1900
 Total energy for state  8:                  -986.46663622 au
    Multiplicity: Singlet 
    Trans. Mom.:  0.1395 X   0.1982 Y  -0.3642 Z
    Strength   :     0.0243361557
    X: D(   85) --> V(    1) amplitude =  0.4260
    X: D(   86) --> V(    1) amplitude =  0.2165
    X: D(   89) --> V(    5) amplitude = -0.2732
    X: D(   90) --> V(    3) amplitude =  0.4665
    X: D(   90) --> V(    5) amplitude = -0.4332
    X: D(   90) --> V(    6) amplitude =  0.2199

 Excited state   9: excitation energy (eV) =    5.4173
 Total energy for state  9:                  -986.45828119 au
    Multiplicity: Singlet 
    Trans. Mom.:  0.4825 X  -0.3378 Y  -0.0138 Z
    Strength   :     0.0460634412
    X: D(   87) --> V(    1) amplitude = -0.3923
    X: D(   88) --> V(    1) amplitude =  0.6119
    X: D(   89) --> V(    3) amplitude = -0.5021
    X: D(   90) --> V(    3) amplitude = -0.2554
    X: D(   90) --> V(    6) amplitude = -0.2194

 Excited state  10: excitation energy (eV) =    5.5476
 Total energy for state 10:                  -986.45349423 au
    Multiplicity: Singlet 
    Trans. Mom.: -0.0683 X  -0.2125 Y  -0.1403 Z
    Strength   :     0.0094439517
    X: D(   85) --> V(    1) amplitude =  0.2843
    X: D(   86) --> V(    1) amplitude =  0.2151
    X: D(   87) --> V(    1) amplitude = -0.4842
    X: D(   88) --> V(    1) amplitude = -0.3574
    X: D(   89) --> V(    2) amplitude =  0.6452
 
 ---------------------------------------------------
  SETman timing summary (seconds)
  CPU time              8970.98s
  System time              0.01s
  Wall time              518.66s
 
 --------------------------------------------------------------
 
                    Orbital Energies (a.u.)
 --------------------------------------------------------------
 
 Alpha MOs
 -- Occupied --
-14.3814 -10.3070 -10.3061 -10.3055 -10.3042 -10.2930 -10.2926 -10.2918
-10.2910 -10.2909 -10.2903 -10.2903 -10.2902 -10.2901 -10.2900 -10.2897
-10.2895 -10.2889 -10.2878 -10.2877 -10.2838 -10.2817 -10.2620 -10.2553
-10.2501  -1.0019  -0.9807  -0.9660  -0.9485  -0.8962  -0.8595  -0.8556
 -0.8529  -0.8496  -0.8456  -0.8446  -0.8084  -0.7947  -0.7413  -0.7240
 -0.7198  -0.7064  -0.7005  -0.6960  -0.6738  -0.6699  -0.6327  -0.6324
 -0.6131  -0.5770  -0.5731  -0.5687  -0.5663  -0.5460  -0.5429  -0.5375
 -0.5367  -0.5226  -0.5185  -0.5123  -0.5106  -0.5087  -0.5011  -0.4986
 -0.4956  -0.4822  -0.4780  -0.4706  -0.4657  -0.4599  -0.4585  -0.4486
 -0.4429  -0.4411  -0.4378  -0.4325  -0.4286  -0.4232  -0.4220  -0.4134
 -0.4073  -0.4013  -0.3961  -0.3747  -0.3381  -0.3356  -0.3335  -0.3330
 -0.2800  -0.2375
 -- Virtual --
 -0.0052   0.0453   0.0561   0.0578   0.0720   0.1090   0.1148   0.1259
  0.1308   0.1321   0.1386   0.1501   0.1607   0.1625   0.1639   0.1685
  0.1754   0.1858   0.1868   0.1888   0.1958   0.1989   0.2020   0.2049
  0.2160   0.2210   0.2255   0.2344   0.2387   0.2430   0.2451   0.2510
  0.2592   0.2619   0.2637   0.2688   0.2704   0.2761   0.2868   0.2929
  0.3019   0.3128   0.3154   0.3166   0.3219   0.3253   0.3339   0.3460
  0.3518   0.3553   0.3592   0.3630   0.3686   0.3710   0.3834   0.3903
  0.3921   0.3966   0.4007   0.4053   0.4096   0.4158   0.4223   0.4260
  0.4305   0.4338   0.4439   0.4618   0.4620   0.4668   0.4690   0.4731
  0.4747   0.4823   0.4911   0.4942   0.4970   0.5005   0.5085   0.5103
  0.5166   0.5207   0.5231   0.5259   0.5296   0.5312   0.5320   0.5393
  0.5475   0.5482   0.5536   0.5610   0.5693   0.5817   0.5874   0.5966
  0.5990   0.6059   0.6130   0.6216   0.6237   0.6284   0.6349   0.6413
  0.6418   0.6504   0.6509   0.6627   0.6639   0.6673   0.6719   0.6774
  0.6809   0.6828   0.6857   0.6865   0.6897   0.6914   0.6946   0.7010
  0.7058   0.7066   0.7103   0.7118   0.7144   0.7161   0.7212   0.7237
  0.7285   0.7324   0.7372   0.7399   0.7415   0.7434   0.7486   0.7612
  0.7682   0.7729   0.7775   0.7863   0.7894   0.8005   0.8104   0.8167
  0.8212   0.8252   0.8324   0.8373   0.8404   0.8480   0.8546   0.8563
  0.8658   0.8788   0.8825   0.8877   0.8981   0.9038   0.9157   0.9171
  0.9193   0.9280   0.9333   0.9371   0.9450   0.9456   0.9616   0.9703
  0.9781   0.9813   0.9939   1.0091   1.0116   1.0282   1.0351   1.0404
  1.0476   1.0539   1.0666   1.0730   1.0850   1.0906   1.0953   1.0978
  1.1123   1.1221   1.1307   1.1400   1.1485   1.1529   1.1606   1.1657
  1.1755   1.1821   1.1873   1.1903   1.2066   1.2132   1.2250   1.2306
  1.2365   1.2406   1.2429   1.2529   1.2627   1.2841   1.2958   1.3217
  1.3313   1.3370   1.3507   1.3567   1.3641   1.3744   1.3916   1.3979
  1.4204   1.4409   1.4659   1.4820   1.4969   1.5025   1.5107   1.5179
  1.5273   1.5363   1.5388   1.5393   1.5421   1.5478   1.5504   1.5517
  1.5625   1.5691   1.5746   1.5793   1.5842   1.5910   1.6005   1.6099
  1.6152   1.6204   1.6240   1.6330   1.6397   1.6435   1.6465   1.6541
  1.6580   1.6633   1.6675   1.6724   1.6778   1.6823   1.6853   1.6915
  1.7012   1.7054   1.7111   1.7161   1.7200   1.7272   1.7345   1.7413
  1.7461   1.7542   1.7592   1.7664   1.7710   1.7723   1.7816   1.7927
  1.8003   1.8132   1.8203   1.8250   1.8356   1.8390   1.8432   1.8462
  1.8521   1.8544   1.8609   1.8620   1.8706   1.8738   1.8767   1.8875
  1.8915   1.8966   1.9059   1.9145   1.9261   1.9356   1.9452   1.9506
  1.9601   1.9667   1.9738   1.9807   1.9832   1.9872   1.9949   2.0053
  2.0078   2.0141   2.0179   2.0247   2.0323   2.0352   2.0444   2.0457
  2.0584   2.0601   2.0641   2.0753   2.0796   2.0882   2.0951   2.0984
  2.1071   2.1194   2.1239   2.1288   2.1339   2.1530   2.1582   2.1697
  2.1725   2.1762   2.1784   2.1945   2.2065   2.2130   2.2237   2.2393
  2.2700   2.2713   2.2813   2.2886   2.3023   2.3171   2.3446   2.3631
  2.3698   2.3768   2.3813   2.3876   2.3991   2.4038   2.4149   2.4182
  2.4288   2.4330   2.4399   2.4418   2.4593   2.4678   2.4711   2.4780
  2.4843   2.4957   2.5033   2.5097   2.5104   2.5170   2.5197   2.5319
  2.5385   2.5519   2.5620   2.5760   2.5858   2.5955   2.6175   2.6317
  2.6393   2.6529   2.6582   2.6624   2.6636   2.6746   2.6755   2.6778
  2.6909   2.6936   2.7010   2.7062   2.7084   2.7163   2.7220   2.7262
  2.7313   2.7360   2.7464   2.7530   2.7558   2.7640   2.7688   2.7738
  2.7744   2.7819   2.7867   2.7877   2.7902   2.8009   2.8031   2.8158
  2.8209   2.8244   2.8293   2.8375   2.8379   2.8470   2.8602   2.8730
  2.8742   2.8828   2.8905   2.8985   2.9139   2.9178   2.9261   2.9354
  2.9422   2.9460   2.9556   2.9590   2.9846   2.9854   2.9920   3.0053
  3.0119   3.0126   3.0212   3.0267   3.0411   3.0433   3.0578   3.0598
  3.0939   3.0996   3.1095   3.1276   3.1428   3.1661   3.1945   3.2077
  3.2251   3.2460   3.2796   3.3144   3.3312   3.3367   3.3541   3.3564
  3.4081   3.4391   3.4432   3.4599   3.5066   3.5142   3.5424   3.5748
  3.5852   3.5983   3.6176   3.6397   3.6583   3.6767   3.6920   3.7009
  3.7123   3.7440   3.7633   3.8096   3.8881   3.8991   3.9125   3.9163
  3.9276   3.9321   3.9451   3.9579   3.9758   3.9892   4.0195   4.0623
  4.0736   4.1085   4.1291   4.1483   4.1855   4.2266   4.2296   4.2340
  4.2662   4.2818   4.3083   4.3191   4.3403   4.4313   4.5451   4.7482
  4.8789   4.9212   4.9540   5.0614   5.1350  23.6031  23.7442  23.8628
 23.9859  24.0111  24.0210  24.0327  24.0482  24.0520  24.0611  24.0660
 24.0833  24.1048  24.1081  24.1211  24.1372  24.1564  24.1963  24.2423
 24.2603  24.2702  24.3152  24.3209  24.3313  35.7315
 --------------------------------------------------------------
 
          Ground-State Mulliken Net Atomic Charges

     Atom                 Charge (a.u.)
  ----------------------------------------
      1 C                    -0.309958
      2 C                    -0.117574
      3 N                    -0.410412
      4 H                     0.107489
      5 H                     0.110541
      6 H                     0.134281
      7 H                     0.103898
      8 C                    -0.052617
      9 H                     0.091214
     10 H                     0.126410
     11 H                     0.118319
     12 C                    -0.374021
     13 H                     0.113041
     14 H                     0.122204
     15 H                     0.123314
     16 C                    -0.145805
     17 H                     0.112679
     18 H                     0.115056
     19 C                    -0.298964
     20 H                     0.105122
     21 H                     0.112805
     22 H                     0.112688
     23 C                    -0.019197
     24 C                    -0.077490
     25 H                     0.116409
     26 C                    -0.112886
     27 H                     0.124332
     28 C                    -0.147175
     29 H                     0.122440
     30 C                    -0.109317
     31 H                     0.119646
     32 C                    -0.120413
     33 H                     0.125937
     34 C                    -0.052414
     35 C                    -0.120411
     36 H                     0.122644
     37 C                    -0.103058
     38 H                     0.122410
     39 C                    -0.014909
     40 C                    -0.110885
     41 H                     0.120124
     42 C                    -0.112953
     43 H                     0.121713
     44 C                    -0.046432
     45 C                    -0.103064
     46 H                     0.123821
     47 C                    -0.121709
     48 H                     0.122611
     49 C                    -0.115034
     50 H                     0.123815
     51 C                    -0.121751
     52 H                     0.122758
     53 C                    -0.103672
     54 H                     0.124399
  ----------------------------------------
  Sum of atomic charges =     0.000000

         RPA Excited State  1:  Mulliken Net Atomic Charges

     Atom                 Charge (a.u.)
  ----------------------------------------
      1 C                    -0.266692
      2 C                    -0.097396
      3 N                     0.169846
      4 H                     0.110250
      5 H                     0.110949
      6 H                     0.137520
      7 H                     0.113386
      8 C                    -0.028493
      9 H                     0.123194
     10 H                     0.164187
     11 H                     0.133251
     12 C                    -0.372016
     13 H                     0.109795
     14 H                     0.122423
     15 H                     0.124206
     16 C                    -0.135795
     17 H                     0.129623
     18 H                     0.116717
     19 C                    -0.272359
     20 H                     0.111114
     21 H                     0.113529
     22 H                     0.112842
     23 C                    -0.129672
     24 C                    -0.153806
     25 H                     0.115389
     26 C                    -0.130801
     27 H                     0.124240
     28 C                    -0.265011
     29 H                     0.120992
     30 C                    -0.121517
     31 H                     0.119598
     32 C                    -0.186043
     33 H                     0.125016
     34 C                    -0.159392
     35 C                    -0.183437
     36 H                     0.121482
     37 C                    -0.118467
     38 H                     0.122136
     39 C                    -0.116915
     40 C                    -0.129873
     41 H                     0.119907
     42 C                    -0.172100
     43 H                     0.121055
     44 C                    -0.053632
     45 C                    -0.118386
     46 H                     0.123744
     47 C                    -0.123106
     48 H                     0.122556
     49 C                    -0.131824
     50 H                     0.123634
     51 C                    -0.123049
     52 H                     0.122713
     53 C                    -0.119854
     54 H                     0.124344
  ----------------------------------------
  Sum of atomic charges =     0.000000

         RPA Excited State  2:  Mulliken Net Atomic Charges

     Atom                 Charge (a.u.)
  ----------------------------------------
      1 C                    -0.305824
      2 C                    -0.116515
      3 N                    -0.329345
      4 H                     0.107618
      5 H                     0.110472
      6 H                     0.133877
      7 H                     0.105217
      8 C                    -0.049573
      9 H                     0.096771
     10 H                     0.132775
     11 H                     0.117767
     12 C                    -0.373671
     13 H                     0.109110
     14 H                     0.122237
     15 H                     0.122676
     16 C                    -0.143895
     17 H                     0.116098
     18 H                     0.114800
     19 C                    -0.294094
     20 H                     0.105818
     21 H                     0.112863
     22 H                     0.112745
     23 C                    -0.039836
     24 C                    -0.097369
     25 H                     0.115578
     26 C                    -0.117094
     27 H                     0.124244
     28 C                    -0.176357
     29 H                     0.121605
     30 C                    -0.117949
     31 H                     0.119517
     32 C                    -0.117901
     33 H                     0.125419
     34 C                    -0.062617
     35 C                    -0.137161
     36 H                     0.121749
     37 C                    -0.093278
     38 H                     0.121933
     39 C                    -0.019830
     40 C                    -0.117139
     41 H                     0.120004
     42 C                    -0.113090
     43 H                     0.121399
     44 C                    -0.044435
     45 C                    -0.101743
     46 H                     0.123766
     47 C                    -0.121954
     48 H                     0.122568
     49 C                    -0.114626
     50 H                     0.123520
     51 C                    -0.122178
     52 H                     0.122717
     53 C                    -0.101756
     54 H                     0.124368
  ----------------------------------------
  Sum of atomic charges =     0.000000

         RPA Excited State  3:  Mulliken Net Atomic Charges

     Atom                 Charge (a.u.)
  ----------------------------------------
      1 C                    -0.275623
      2 C                    -0.103411
      3 N                     0.088875
      4 H                     0.109209
      5 H                     0.110765
      6 H                     0.136080
      7 H                     0.111772
      8 C                    -0.030899
      9 H                     0.118929
     10 H                     0.160681
     11 H                     0.124926
     12 C                    -0.373440
     13 H                     0.093521
     14 H                     0.122265
     15 H                     0.125719
     16 C                    -0.137675
     17 H                     0.114667
     18 H                     0.113125
     19 C                    -0.275185
     20 H                     0.110309
     21 H                     0.113501
     22 H                     0.112291
     23 C                     0.002656
     24 C                    -0.208052
     25 H                     0.112632
     26 C                    -0.278292
     27 H                     0.122196
     28 C                    -0.111115
     29 H                     0.122813
     30 C                    -0.234674
     31 H                     0.118152
     32 C                    -0.258320
     33 H                     0.123559
     34 C                    -0.041382
     35 C                    -0.150248
     36 H                     0.121694
     37 C                    -0.163789
     38 H                     0.121609
     39 C                    -0.003236
     40 C                    -0.157067
     41 H                     0.119590
     42 C                    -0.155907
     43 H                     0.119383
     44 C                    -0.046644
     45 C                    -0.101182
     46 H                     0.123291
     47 C                    -0.122391
     48 H                     0.122611
     49 C                    -0.113416
     50 H                     0.123803
     51 C                    -0.121881
     52 H                     0.122765
     53 C                    -0.103122
     54 H                     0.123559
  ----------------------------------------
  Sum of atomic charges =     0.000000

         RPA Excited State  4:  Mulliken Net Atomic Charges

     Atom                 Charge (a.u.)
  ----------------------------------------
      1 C                    -0.300948
      2 C                    -0.109291
      3 N                    -0.288970
      4 H                     0.108123
      5 H                     0.110829
      6 H                     0.135291
      7 H                     0.105764
      8 C                    -0.047053
      9 H                     0.098022
     10 H                     0.135093
     11 H                     0.121611
     12 C                    -0.373597
     13 H                     0.109137
     14 H                     0.122032
     15 H                     0.123791
     16 C                    -0.143393
     17 H                     0.112077
     18 H                     0.115307
     19 C                    -0.293107
     20 H                     0.106423
     21 H                     0.112972
     22 H                     0.112543
     23 C                    -0.018063
     24 C                    -0.104210
     25 H                     0.115323
     26 C                    -0.156174
     27 H                     0.123735
     28 C                    -0.142320
     29 H                     0.122440
     30 C                    -0.133808
     31 H                     0.119345
     32 C                    -0.153592
     33 H                     0.124996
     34 C                    -0.040059
     35 C                    -0.133751
     36 H                     0.121534
     37 C                    -0.126431
     38 H                     0.120995
     39 C                    -0.002642
     40 C                    -0.120940
     41 H                     0.118914
     42 C                    -0.128647
     43 H                     0.120836
     44 C                    -0.044757
     45 C                    -0.102079
     46 H                     0.122365
     47 C                    -0.125778
     48 H                     0.122588
     49 C                    -0.111033
     50 H                     0.123793
     51 C                    -0.124636
     52 H                     0.122751
     53 C                    -0.105247
     54 H                     0.121895
  ----------------------------------------
  Sum of atomic charges =     0.000000

         RPA Excited State  5:  Mulliken Net Atomic Charges

     Atom                 Charge (a.u.)
  ----------------------------------------
      1 C                    -0.290492
      2 C                    -0.110641
      3 N                    -0.181133
      4 H                     0.107450
      5 H                     0.110544
      6 H                     0.132104
      7 H                     0.107790
      8 C                    -0.045128
      9 H                     0.103681
     10 H                     0.140475
     11 H                     0.124884
     12 C                    -0.372368
     13 H                     0.103440
     14 H                     0.122096
     15 H                     0.124068
     16 C                    -0.139843
     17 H                     0.118810
     18 H                     0.113865
     19 C                    -0.286544
     20 H                     0.107548
     21 H                     0.113326
     22 H                     0.112758
     23 C                    -0.048964
     24 C                    -0.053310
     25 H                     0.114155
     26 C                    -0.078577
     27 H                     0.124180
     28 C                    -0.181183
     29 H                     0.121781
     30 C                    -0.073341
     31 H                     0.119551
     32 C                    -0.095088
     33 H                     0.125415
     34 C                    -0.074964
     35 C                    -0.196208
     36 H                     0.121579
     37 C                    -0.189697
     38 H                     0.120991
     39 C                    -0.035347
     40 C                    -0.164713
     41 H                     0.119407
     42 C                    -0.195475
     43 H                     0.119966
     44 C                    -0.049526
     45 C                    -0.105572
     46 H                     0.122898
     47 C                    -0.124452
     48 H                     0.122589
     49 C                    -0.118767
     50 H                     0.123735
     51 C                    -0.122461
     52 H                     0.122767
     53 C                    -0.110146
     54 H                     0.122088
  ----------------------------------------
  Sum of atomic charges =     0.000000

         RPA Excited State  6:  Mulliken Net Atomic Charges

     Atom                 Charge (a.u.)
  ----------------------------------------
      1 C                    -0.308286
      2 C                    -0.116175
      3 N                    -0.395352
      4 H                     0.107642
      5 H                     0.110597
      6 H                     0.134310
      7 H                     0.103335
      8 C                    -0.051874
      9 H                     0.091993
     10 H                     0.127153
     11 H                     0.118491
     12 C                    -0.373949
     13 H                     0.112809
     14 H                     0.122208
     15 H                     0.123355
     16 C                    -0.145542
     17 H                     0.113063
     18 H                     0.115119
     19 C                    -0.298288
     20 H                     0.105282
     21 H                     0.112805
     22 H                     0.112682
     23 C                    -0.023314
     24 C                    -0.078875
     25 H                     0.116381
     26 C                    -0.114504
     27 H                     0.124300
     28 C                    -0.150860
     29 H                     0.122370
     30 C                    -0.109885
     31 H                     0.119638
     32 C                    -0.122306
     33 H                     0.125850
     34 C                    -0.060339
     35 C                    -0.116004
     36 H                     0.122605
     37 C                    -0.101761
     38 H                     0.120696
     39 C                    -0.024950
     40 C                    -0.103850
     41 H                     0.118374
     42 C                    -0.108054
     43 H                     0.121802
     44 C                    -0.045883
     45 C                    -0.118617
     46 H                     0.122563
     47 C                    -0.115170
     48 H                     0.122039
     49 C                    -0.114997
     50 H                     0.123308
     51 C                    -0.134313
     52 H                     0.121973
     53 C                    -0.083091
     54 H                     0.123498
  ----------------------------------------
  Sum of atomic charges =     0.000000

         RPA Excited State  7:  Mulliken Net Atomic Charges

     Atom                 Charge (a.u.)
  ----------------------------------------
      1 C                    -0.272488
      2 C                    -0.097360
      3 N                     0.040834
      4 H                     0.110078
      5 H                     0.108924
      6 H                     0.137526
      7 H                     0.111941
      8 C                    -0.032648
      9 H                     0.112881
     10 H                     0.154713
     11 H                     0.130254
     12 C                    -0.372873
     13 H                     0.112091
     14 H                     0.122034
     15 H                     0.124667
     16 C                    -0.138816
     17 H                     0.123817
     18 H                     0.116046
     19 C                    -0.276032
     20 H                     0.109479
     21 H                     0.112861
     22 H                     0.111247
     23 C                    -0.083579
     24 C                    -0.095798
     25 H                     0.113726
     26 C                    -0.121859
     27 H                     0.122847
     28 C                    -0.195222
     29 H                     0.121134
     30 C                    -0.160296
     31 H                     0.118857
     32 C                    -0.137456
     33 H                     0.124228
     34 C                    -0.099863
     35 C                    -0.156962
     36 H                     0.121785
     37 C                    -0.103433
     38 H                     0.122222
     39 C                    -0.050285
     40 C                    -0.229042
     41 H                     0.118281
     42 C                    -0.134583
     43 H                     0.121544
     44 C                    -0.099120
     45 C                    -0.120889
     46 H                     0.121692
     47 C                    -0.132630
     48 H                     0.122483
     49 C                    -0.164021
     50 H                     0.123153
     51 C                    -0.127723
     52 H                     0.122687
     53 C                    -0.134888
     54 H                     0.123836
  ----------------------------------------
  Sum of atomic charges =     0.000000

         RPA Excited State  8:  Mulliken Net Atomic Charges

     Atom                 Charge (a.u.)
  ----------------------------------------
      1 C                    -0.280153
      2 C                    -0.100502
      3 N                    -0.034158
      4 H                     0.107496
      5 H                     0.111105
      6 H                     0.133032
      7 H                     0.109059
      8 C                    -0.038382
      9 H                     0.112054
     10 H                     0.148111
     11 H                     0.130788
     12 C                    -0.371896
     13 H                     0.112610
     14 H                     0.121518
     15 H                     0.124655
     16 C                    -0.136096
     17 H                     0.117147
     18 H                     0.116968
     19 C                    -0.279563
     20 H                     0.109181
     21 H                     0.113015
     22 H                     0.112820
     23 C                    -0.079254
     24 C                    -0.106080
     25 H                     0.115457
     26 C                    -0.146945
     27 H                     0.123507
     28 C                    -0.206687
     29 H                     0.121519
     30 C                    -0.107579
     31 H                     0.119329
     32 C                    -0.125611
     33 H                     0.125447
     34 C                    -0.101252
     35 C                    -0.138724
     36 H                     0.121968
     37 C                    -0.173444
     38 H                     0.120651
     39 C                    -0.058534
     40 C                    -0.110755
     41 H                     0.119921
     42 C                    -0.151823
     43 H                     0.121073
     44 C                    -0.079749
     45 C                    -0.111005
     46 H                     0.123381
     47 C                    -0.136981
     48 H                     0.122447
     49 C                    -0.146862
     50 H                     0.123371
     51 C                    -0.122687
     52 H                     0.122779
     53 C                    -0.136209
     54 H                     0.120522
  ----------------------------------------
  Sum of atomic charges =     0.000000

         RPA Excited State  9:  Mulliken Net Atomic Charges

     Atom                 Charge (a.u.)
  ----------------------------------------
      1 C                    -0.300596
      2 C                    -0.112771
      3 N                    -0.278879
      4 H                     0.107633
      5 H                     0.109845
      6 H                     0.133384
      7 H                     0.105285
      8 C                    -0.047263
      9 H                     0.097390
     10 H                     0.135162
     11 H                     0.117887
     12 C                    -0.373634
     13 H                     0.110625
     14 H                     0.122147
     15 H                     0.123362
     16 C                    -0.143323
     17 H                     0.117054
     18 H                     0.115051
     19 C                    -0.291526
     20 H                     0.106373
     21 H                     0.112458
     22 H                     0.112225
     23 C                    -0.015569
     24 C                    -0.085226
     25 H                     0.115573
     26 C                    -0.119505
     27 H                     0.123988
     28 C                    -0.167323
     29 H                     0.121677
     30 C                    -0.113021
     31 H                     0.119513
     32 C                    -0.133055
     33 H                     0.125203
     34 C                    -0.124096
     35 C                    -0.137525
     36 H                     0.121905
     37 C                    -0.108017
     38 H                     0.121328
     39 C                    -0.080820
     40 C                    -0.121261
     41 H                     0.119456
     42 C                    -0.125304
     43 H                     0.121313
     44 C                    -0.009832
     45 C                    -0.103304
     46 H                     0.122991
     47 C                    -0.117288
     48 H                     0.122583
     49 C                    -0.099977
     50 H                     0.123117
     51 C                    -0.117455
     52 H                     0.122735
     53 C                    -0.103639
     54 H                     0.122946
  ----------------------------------------
  Sum of atomic charges =     0.000000

         RPA Excited State 10:  Mulliken Net Atomic Charges

     Atom                 Charge (a.u.)
  ----------------------------------------
      1 C                    -0.306276
      2 C                    -0.113209
      3 N                    -0.361697
      4 H                     0.106949
      5 H                     0.110798
      6 H                     0.133856
      7 H                     0.104402
      8 C                    -0.050866
      9 H                     0.093874
     10 H                     0.129873
     11 H                     0.115058
     12 C                    -0.372901
     13 H                     0.098187
     14 H                     0.121953
     15 H                     0.122940
     16 C                    -0.143682
     17 H                     0.113802
     18 H                     0.113284
     19 C                    -0.295110
     20 H                     0.105604
     21 H                     0.112898
     22 H                     0.112503
     23 C                    -0.035084
     24 C                    -0.080405
     25 H                     0.114144
     26 C                    -0.101679
     27 H                     0.124172
     28 C                    -0.166248
     29 H                     0.122140
     30 C                    -0.107744
     31 H                     0.119420
     32 C                    -0.110791
     33 H                     0.124436
     34 C                    -0.064723
     35 C                    -0.128858
     36 H                     0.120749
     37 C                    -0.105477
     38 H                     0.121018
     39 C                    -0.025699
     40 C                    -0.109972
     41 H                     0.119118
     42 C                    -0.114508
     43 H                     0.119820
     44 C                    -0.053737
     45 C                    -0.096170
     46 H                     0.122268
     47 C                    -0.114788
     48 H                     0.122662
     49 C                    -0.122386
     50 H                     0.123648
     51 C                    -0.113250
     52 H                     0.122830
     53 C                    -0.098915
     54 H                     0.121772
  ----------------------------------------
  Sum of atomic charges =     0.000000

 -----------------------------------------------------------------
                    Cartesian Multipole Moments
 -----------------------------------------------------------------
    Charge (ESU x 10^10)
                -0.0000
    Dipole Moment (Debye)
         X      -0.1593      Y      -0.1789      Z       0.0096
       Tot       0.2397
    Quadrupole Moments (Debye-Ang)
        XX    -137.9189     XY      -5.7512     YY    -158.6351
        XZ      -2.0445     YZ     -10.6977     ZZ    -142.6051
    Octopole Moments (Debye-Ang^2)
       XXX    -924.3980    XXY    -257.8293    XYY    -367.9191
       YYY    -808.5350    XXZ     -49.1227    XYZ     -13.8947
       YYZ     -84.8395    XZZ    -296.8347    YZZ    -256.9335
       ZZZ    -166.4061
    Hexadecapole Moments (Debye-Ang^3)
      XXXX  -13635.3678   XXXY   -1593.8537   XXYY   -3458.2964
      XYYY   -1495.1128   YYYY   -5621.7292   XXXZ   -1024.5085
      XXYZ    -222.4210   XYYZ    -301.0249   YYYZ    -336.1557
      XXZZ   -2595.3012   XYZZ    -456.9971   YYZZ   -1137.9945
      XZZZ    -999.0115   YZZZ    -250.9811   ZZZZ   -1563.0021
 -----------------------------------------------------------------
 Total job time:  832.98s(wall), 13992.86s(cpu) 
 Fri Nov 25 08:46:25 2022

        *************************************************************
        *                                                           *
        *  Thank you very much for using Q-Chem.  Have a nice day.  *
        *                                                           *
        *************************************************************


remove work dirs /tmp/SLURM_12490499/qchem31790.0 -- /tmp/SLURM_12490499/qchem31790.-1
rm -rf /tmp/SLURM_12490499/qchem31790
