==========================================
SLURM_JOB_ID = 12490575
SLURM_JOB_NODELIST = a01-06
TMPDIR = /tmp/SLURM_12490575
==========================================

Due to MODULEPATH changes, the following have been reloaded:
  1) pmix/3.1.3

-------------------------------------------------------------------------------
There are messages associated with the following module(s):
-------------------------------------------------------------------------------

anaconda3/2021.05:
   This module is deprecated and will be removed in mid-December. Please use
   module load conda instead and run conda init bash again to update your
   shell to use the newer version of conda. Your conda environments will not
   be impacted.

-------------------------------------------------------------------------------

a01-06.hpc.usc.edu
You are running Q-Chem version: 5.4.2

#
# job setting
#
local host:  a01-06.hpc.usc.edu
current dir: /scratch2/patraa/workflow/cyclohexane/wB97_6311g_opt/ex_eda/ex_eda_fsm_all
input file:  e_5.87_1.0_-1.inp
output file: 
nprocs     : 0
nthreads   : 16
#
# qchem installation setting
#
QC:          /spack/apps/linux-centos7-x86_64/gcc-8.3.0/qchem-5.4.2/openmp
QCAUX:       /spack/apps/linux-centos7-x86_64/gcc-8.3.0/qchem-5.4.2/openmp/qcaux
QCPROG:      /spack/apps/linux-centos7-x86_64/gcc-8.3.0/qchem-5.4.2/openmp/exe/qcprog.exe_s
QCPROG_S:    /spack/apps/linux-centos7-x86_64/gcc-8.3.0/qchem-5.4.2/openmp/exe/qcprog.exe_s
PARALLEL:    -DSERIAL
QCMPI:       
#
# qchem directory setting
#
qcrun:       qchem51501
QCSCRATCH:   /scratch1/patraa
QCLOCALSCR:  /tmp/SLURM_12490575
QCTMPDIR:    /tmp/SLURM_12490575
QCFILEPREF:  /tmp/SLURM_12490575/qchem51501
QCSAVEDIR:   
workdirs:    /tmp/SLURM_12490575/qchem51501
workdir0:    /tmp/SLURM_12490575/qchem51501
partmpdirs =  
#
# parallel setting
#
QCRSH:           ssh
QCMPI:           mpich
QCMPIRUN:        /spack/apps/linux-centos7-x86_64/gcc-8.3.0/qchem-5.4.2/openmp/bin/mpi/mpirun_qchem
QCMACHINEFILE:   /tmp/SLURM_12490575/qchem51501/hostfile

#
# env setting
#
exported envs:   QC QCAUX QCSCRATCH QCRUNNAME QCFILEPREF QCPROG QCPROG_S GUIFILE

Running Job 1 of 1 e_5.87_1.0_-1.inp
qchem e_5.87_1.0_-1.inp_51501.0 /tmp/SLURM_12490575/qchem51501/ 0
/spack/apps/linux-centos7-x86_64/gcc-8.3.0/qchem-5.4.2/openmp/exe/qcprog.exe_s e_5.87_1.0_-1.inp_51501.0 /tmp/SLURM_12490575/qchem51501/
                  Welcome to Q-Chem
     A Quantum Leap Into The Future Of Chemistry


 Q-Chem 5.4, Q-Chem, Inc., Pleasanton, CA (2021)

 License issued to: University of Southern California

 E. Epifanovsky,  A. T. B. Gilbert,  Xintian Feng,  Joonho Lee,  Yuezhi Mao,  
 N. Mardirossian,  P. Pokhilko,  A. White,  M. Wormit,  M. P. Coons,  
 A. L. Dempwolff,  Zhengting Gan,  D. Hait,  P. R. Horn,  L. D. Jacobson,  
 I. Kaliman,  J. Kussmann,  A. W. Lange,  Ka Un Lao,  D. S. Levine,  Jie Liu,  
 S. C. McKenzie,  A. F. Morrison,  K. Nanda,  F. Plasser,  D. R. Rehn,  
 M. L. Vidal,  Zhi-Qiang You,  Ying Zhu,  B. Alam,  B. Albrecht,  
 A. Aldossary,  E. Alguire,  J. H. Andersen,  D. Barton,  K. Begam,  A. Behn,  
 Y. A. Bernard,  E. J. Berquist,  H. Burton,  A. Carreras,  K. Carter-Fenk,  
 Romit Chakraborty,  A. D. Chien,  K. D. Closser,  V. Cofer-Shabica,  
 S. Dasgupta,  Jia Deng,  M. de Wergifosse,  M. Diedenhofen,  Hainam Do,  
 S. Ehlert,  Po-Tung Fang,  S. Fatehi,  Qingguo Feng,  T. Friedhoff,  
 J. Gayvert,  Qinghui Ge,  G. Gidofalvi,  M. Goldey,  J. Gomes,  
 C. Gonzalez-Espinoza,  S. Gulania,  A. Gunina,  M. W. D. Hanson-Heine,  
 P. H. P. Harbach,  A. W. Hauser,  M. F. Herbst,  M. Hernandez Vera,  
 M. Hodecker,  Z. C. Holden,  S. Houck,  Xunkun Huang,  Kerwin Hui,  
 B. C. Huynh,  M. Ivanov,  Hyunjun Ji,  Hanjie Jiang,  B. Kaduk,  S. Kaehler,  
 K. Khistyaev,  Jaehoon Kim,  P. Klunzinger,  Z. Koczor-Benda,  
 Joong Hoon Koh,  D. Kosenkov,  L. Koulias,  T. Kowalczyk,  C. M. Krauter,  
 K. Kue,  A. Kunitsa,  T. Kus,  A. Landau,  K. V. Lawler,  D. Lefrancois,  
 S. Lehtola,  Rain Li,  Yi-Pei Li,  Jiashu Liang,  M. Liebenthal,  
 Hung-Hsuan Lin,  You-Sheng Lin,  Fenglai Liu,  Kuan-Yu Liu,  
 M. Loipersberger,  A. Luenser,  A. Manjanath,  P. Manohar,  E. Mansoor,  
 S. F. Manzer,  Shan-Ping Mao,  A. V. Marenich,  T. Markovich,  S. Mason,  
 S. A. Maurer,  P. F. McLaughlin,  M. F. S. J. Menger,  J.-M. Mewes,  
 S. A. Mewes,  P. Morgante,  J. W. Mullinax,  K. J. Oosterbaan,  G. Paran,  
 Alexander C. Paul,  Suranjan K. Paul,  F. Pavosevic,  Zheng Pei,  S. Prager,  
 E. I. Proynov,  E. Ramos,  B. Rana,  A. E. Rask,  A. Rettig,  R. M. Richard,  
 F. Rob,  E. Rossomme,  T. Scheele,  M. Scheurer,  M. Schneider,  
 N. Sergueev,  S. M. Sharada,  W. Skomorowski,  D. W. Small,  C. J. Stein,  
 Yu-Chuan Su,  E. J. Sundstrom,  Zhen Tao,  J. Thirman,  T. Tsuchimochi,  
 N. M. Tubman,  S. P. Veccham,  O. Vydrov,  J. Wenzel,  J. Witte,  A. Yamada,  
 Kun Yao,  S. Yeganeh,  S. R. Yost,  A. Zech,  Igor Ying Zhang,  Xing Zhang,  
 Yu Zhang,  D. Zuev,  A. Aspuru-Guzik,  A. T. Bell,  N. A. Besley,  
 K. B. Bravaya,  B. R. Brooks,  D. Casanova,  Jeng-Da Chai,  S. Coriani,  
 C. J. Cramer,  A. E. DePrince, III,  R. A. DiStasio Jr.,  A. Dreuw,  
 B. D. Dunietz,  T. R. Furlani,  W. A. Goddard III,  S. Grimme,  
 S. Hammes-Schiffer,  T. Head-Gordon,  W. J. Hehre,  Chao-Ping Hsu,  
 T.-C. Jagau,  Yousung Jung,  A. Klamt,  Jing Kong,  D. S. Lambrecht,  
 WanZhen Liang,  N. J. Mayhall,  C. W. McCurdy,  J. B. Neaton,  T. Neudecker,  
 C. Ochsenfeld,  J. A. Parkhill,  R. Peverati,  V. A. Rassolov,  Yihan Shao,  
 L. V. Slipchenko,  R. P. Steele,  J. E. Subotnik,  A. J. W. Thom,  
 A. Tkatchenko,  D. G. Truhlar,  T. Van Voorhis,  T. A. Wesolowski,  
 K. B. Whaley,  H. L. Woodcock III,  P. M. Zimmerman,  S. Faraji,  
 P. M. W. Gill,  M. Head-Gordon,  J. M. Herbert,  A. I. Krylov

 Additional authors since Version 5.4.0: 
 Chandrima Chakravarty,  L. Cunha,  R. Kang,  Yongbin Kim,  S. Kotaru,  
 Shaozhi Li,  Xiangyuan Li,  F. Matz,  A. Molle,  V. Parravicini,  
 Haisheng Ren,  Hengyuan Shen,  Yingli Su,  Hung-Yi Tsai,  C. Utku,  
 Fang Wang,  Jeff Yang,  F. Zeller

 Contributors to earlier versions of Q-Chem not listed above: 
 R. D. Adamson,  B. Austin,  R. Baer,  J. Baker,  G. J. O. Beran,  
 K. Brandhorst,  S. T. Brown,  E. F. C. Byrd,  Arup K. Chakraborty,  
 G. K. L. Chan,  Chun-Min Chang,  Yunqing Chen,  C.-L. Cheng,  
 Siu Hung Chien,  D. M. Chipman,  D. L. Crittenden,  H. Dachsel,  
 R. J. Doerksen,  A. D. Dutoi,  R. G. Edgar,  J. Fosso-Tande,  
 L. Fusti-Molnar,  D. Ghosh,  A. Ghysels,  A. Golubeva-Zadorozhnaya,  
 J. Gonthier,  M. S. Gordon,  S. R. Gwaltney,  G. Hawkins,  J. E. Herr,  
 A. Heyden,  S. Hirata,  E. G. Hohenstein,  G. Kedziora,  F. J. Keil,  
 C. Kelley,  Jihan Kim,  R. A. King,  R. Z. Khaliullin,  P. P. Korambath,  
 W. Kurlancheek,  A. Laurent,  A. M. Lee,  M. S. Lee,  S. V. Levchenko,  
 Ching Yeh Lin,  D. Liotard,  E. Livshits,  R. C. Lochan,  I. Lotan,  
 L. A. Martinez-Martinez,  P. E. Maslen,  N. Nair,  D. P. O'Neill,  
 D. Neuhauser,  E. Neuscamman,  C. M. Oana,  R. Olivares-Amaya,  R. Olson,  
 T. M. Perrine,  B. Peters,  P. A. Pieniazek,  A. Prociuk,  Y. M. Rhee,  
 J. Ritchie,  M. A. Rohrdanz,  E. Rosta,  N. J. Russ,  H. F. Schaefer III,  
 M. W. Schmidt,  N. E. Schultz,  S. Sharma,  N. Shenvi,  C. D. Sherrill,  
 A. C. Simmonett,  A. Sodt,  T. Stein,  D. Stuck,  K. S. Thanthiriwatte,  
 V. Vanovschi,  L. Vogt,  Tao Wang,  A. Warshel,  M. A. Watson,  
 C. F. Williams,  Q. Wu,  X. Xu,  Jun Yang,  W. Zhang,  Yan Zhao

   Please cite Q-Chem as follows:
  "Software for the frontiers of quantum chemistry:
   An overview of developments in the Q-Chem 5 package"
   J. Chem. Phys. 155, 084801 (2021)
   https://doi.org/10.1063/5.0055522 (open access)

 Q-Chem 5.4.2 for Intel X86 EM64T Linux

 Parts of Q-Chem use Armadillo 9.900.5 (Nocturnal Misbehaviour).
 http://arma.sourceforge.net/

 Q-Chem begins on Fri Nov 25 09:11:03 2022  

 Host: 
0

     Scratch files written to /tmp/SLURM_12490575/qchem51501//
 Dec1321 |scratch|qcdevops|jenkins|workspace|build_RNUM 6013   
 Processing $rem in /spack/apps/linux-centos7-x86_64/gcc-8.3.0/qchem-5.4.2/openmp/config/preferences:
 Processing $rem in /home1/patraa/.qchemrc:

 Checking the input file for inconsistencies... 	...done.

--------------------------------------------------------------
User input:
--------------------------------------------------------------
$molecule
0 1
--
0 1
C      3.7554601108     -0.0640961787      0.2327306623
C      4.7465138465      0.3097951638     -0.7400803491
H      4.4378777251      0.7572281445     -1.6772901296
C      6.0950747576      0.1288932857     -0.5115775444
H      6.8049182994      0.4347275260     -1.2752815690
C      6.5665241779     -0.4245017893      0.6853467350
H      7.6260152386     -0.5747059256      0.8540031922
C      5.6109672677     -0.8890618448      1.6173911206
H      5.9466869661     -1.3917553687      2.5195352877
C      4.2655963308     -0.7208654212      1.4044958372
H      3.5737852142     -1.1178254042      2.1382212210
C      2.3716345813      0.2363947452      0.0620982677
C      1.8415616448      0.7548619152     -1.1638243261
H      2.4493149872      0.7468143044     -2.0611856804
C      0.5532214146      1.2313896170     -1.2596539304
H      0.2057647987      1.5896849016     -2.2241293555
C     -0.3349722567      1.2280006827     -0.1664675698
C      0.1499220726      0.6455221714      1.0257755442
H     -0.4927584665      0.6076631432      1.9000884446
C      1.4316045237      0.1620744934      1.1391261081
H      1.7424332300     -0.2392197523      2.0968717538
C     -1.6893490338      1.7893253875     -0.2669867802
C     -2.7487499627      1.3077685764      0.5206571177
H     -2.5764839422      0.4787272700      1.1979814690
C     -4.0226689509      1.8498788211      0.4287460108
H     -4.8185438745      1.4500349884      1.0482111883
C     -4.2888007710      2.8864604469     -0.4607092354
H     -5.2850833021      3.3073930200     -0.5344232119
C     -3.2549931828      3.3749305308     -1.2530048250
H     -3.4421966267      4.1863919163     -1.9485077327
C     -1.9779952056      2.8409291645     -1.1535780011
H     -1.1826246694      3.2609085964     -1.7594627376
--
0 1
C      2.6302422690      4.5765983056      1.0360202725
C      3.1071480250      3.1430577752      0.7673265751
N      4.5334035432      2.9890617388      0.8622862533
H      2.9892113727      4.9409467179      2.0008032062
H      2.9537872810      5.2645393087      0.2538926867
H      2.6317974116      2.4553749962      1.4591842251
H      1.5403493137      4.5648944767      1.0505166773
C      5.2024568383      2.5139461408      2.0495656330
H      5.9559415752      3.2618408306      2.3176602297
H      5.7699332778      1.6195021251      1.7424613648
H      2.8117806646      2.8382123665     -0.2394602148
C      4.3140132009      2.2004401360      3.2356136063
H      3.6270033264      1.3831386944      3.0161055749
H      4.9541899818      1.8820196823      4.0595389144
H      3.7454689823      3.0734971016      3.5645536214
C      5.3780750485      3.5485901120     -0.1828762817
H      6.1946384201      2.8444806550     -0.3396512830
H      4.7853605209      3.5842421439     -1.0958940581
C      5.9378655668      4.9325889923      0.1572387181
H      6.5264956013      5.2796105516     -0.6928263085
H      5.1470152688      5.6583038434      0.3458344090
H      6.5946675674      4.8983471774      1.0278931962
$end

$rem
basis = 6-311g**
method = wb97xd
job_type = eda
cis_n_roots = 10
cis_singlets = 1
cis_triplets = 0
ex_eda = true
symmetry = false
sym_ignore = true
thresh = 14
$end

$frgm_cis_n_roots
1  10
$end
--------------------------------------------------------------
 ----------------------------------------------------------------
             Standard Nuclear Orientation (Angstroms)
    I     Atom           X                Y                Z
 ----------------------------------------------------------------
    1      C       3.7554601108    -0.0640961787     0.2327306623
    2      C       4.7465138465     0.3097951638    -0.7400803491
    3      H       4.4378777251     0.7572281445    -1.6772901296
    4      C       6.0950747576     0.1288932857    -0.5115775444
    5      H       6.8049182994     0.4347275260    -1.2752815690
    6      C       6.5665241779    -0.4245017893     0.6853467350
    7      H       7.6260152386    -0.5747059256     0.8540031922
    8      C       5.6109672677    -0.8890618448     1.6173911206
    9      H       5.9466869661    -1.3917553687     2.5195352877
   10      C       4.2655963308    -0.7208654212     1.4044958372
   11      H       3.5737852142    -1.1178254042     2.1382212210
   12      C       2.3716345813     0.2363947452     0.0620982677
   13      C       1.8415616448     0.7548619152    -1.1638243261
   14      H       2.4493149872     0.7468143044    -2.0611856804
   15      C       0.5532214146     1.2313896170    -1.2596539304
   16      H       0.2057647987     1.5896849016    -2.2241293555
   17      C      -0.3349722567     1.2280006827    -0.1664675698
   18      C       0.1499220726     0.6455221714     1.0257755442
   19      H      -0.4927584665     0.6076631432     1.9000884446
   20      C       1.4316045237     0.1620744934     1.1391261081
   21      H       1.7424332300    -0.2392197523     2.0968717538
   22      C      -1.6893490338     1.7893253875    -0.2669867802
   23      C      -2.7487499627     1.3077685764     0.5206571177
   24      H      -2.5764839422     0.4787272700     1.1979814690
   25      C      -4.0226689509     1.8498788211     0.4287460108
   26      H      -4.8185438745     1.4500349884     1.0482111883
   27      C      -4.2888007710     2.8864604469    -0.4607092354
   28      H      -5.2850833021     3.3073930200    -0.5344232119
   29      C      -3.2549931828     3.3749305308    -1.2530048250
   30      H      -3.4421966267     4.1863919163    -1.9485077327
   31      C      -1.9779952056     2.8409291645    -1.1535780011
   32      H      -1.1826246694     3.2609085964    -1.7594627376
   33      C       2.6302422690     4.5765983056     1.0360202725
   34      C       3.1071480250     3.1430577752     0.7673265751
   35      N       4.5334035432     2.9890617388     0.8622862533
   36      H       2.9892113727     4.9409467179     2.0008032062
   37      H       2.9537872810     5.2645393087     0.2538926867
   38      H       2.6317974116     2.4553749962     1.4591842251
   39      H       1.5403493137     4.5648944767     1.0505166773
   40      C       5.2024568383     2.5139461408     2.0495656330
   41      H       5.9559415752     3.2618408306     2.3176602297
   42      H       5.7699332778     1.6195021251     1.7424613648
   43      H       2.8117806646     2.8382123665    -0.2394602148
   44      C       4.3140132009     2.2004401360     3.2356136063
   45      H       3.6270033264     1.3831386944     3.0161055749
   46      H       4.9541899818     1.8820196823     4.0595389144
   47      H       3.7454689823     3.0734971016     3.5645536214
   48      C       5.3780750485     3.5485901120    -0.1828762817
   49      H       6.1946384201     2.8444806550    -0.3396512830
   50      H       4.7853605209     3.5842421439    -1.0958940581
   51      C       5.9378655668     4.9325889923     0.1572387181
   52      H       6.5264956013     5.2796105516    -0.6928263085
   53      H       5.1470152688     5.6583038434     0.3458344090
   54      H       6.5946675674     4.8983471774     1.0278931962
 ----------------------------------------------------------------
 Nuclear Repulsion Energy =        2142.17005053 hartrees
 There are       90 alpha and       90 beta electrons
 Requested basis set is 6-311G(d,p)
 There are 241 shells and 624 basis functions

 Total QAlloc Memory Limit   8000 MB
 Mega-Array Size       188 MB
 MEM_STATIC part       192 MB
 A cutoff of  1.0D-14 yielded  19185 shell pairs
 There are    129544 function pairs (    139771 Cartesian)
 Smallest overlap matrix eigenvalue = 1.28E-04

 Scale SEOQF with 1.000000e-02/1.000000e-02/1.000000e-01

 Standard Electronic Orientation quadrupole field applied
 Nucleus-field energy     =    -0.0000000134 hartrees

 -----------------------------------------------------------------------
  General SCF calculation program by
  Eric Jon Sundstrom, Paul Horn, Yuezhi Mao, Dmitri Zuev, Alec White,
  David Stuck, Shaama M.S., Shane Yost, Joonho Lee, David Small,
  Daniel Levine, Susi Lehtola, Hugh Burton, Evgeny Epifanovsky,
  Bang C. Huynh
 -----------------------------------------------------------------------
================================================================
                 ALMO-EDA with the EDA2 driver                  
================================================================
 The second-generation ALMO-EDA (for DFT):                      
 P. R. Horn, Y. Mao and M. Head-Gordon, PCCP, 18, 23067 (2016)  
 Y. Mao et al. Annu. Rev. Phys. Chem. 72, 641 (2021)            
 Decomposition of the frozen energy:                            
 P. R. Horn, Y. Mao and M. Head-Gordon, JCP, 144, 114107 (2016) 
================================================================
--------------------------------
Printing EDA Options
--------------------------------
eda_child_super_basis      0
fragmo_guess_mode          0
child_mp                   0
child_mp_orders            0
cls_elec                   1
cls_disp                   0
scfmi_mode                 0
scfmi_occs                 0
scfmi_virts                0
frz_relax                  0
frz_relax_method           0
dc_pen_start               0
dc_pen_conv                0
dc_pen_increment           0
dc_pen_steps               0
dc_pen_thresh_factor       0
dc_pen_pre_newton_thresh   0
frz_ortho_decomp           0
frz_ortho_decomp_conv      0
plot_mo_ortho_frz          0
frgm_method                2
scfmi_freeze_ss            0
separate_rehyb             0
plot_diff_den              0
eda_nocv                   0
eda_vct_relax              0
disp_free_x                0
disp_free_c                0
eda_bsse                   0
eda_pct_a                  0
eda_covp                   0
--------------------------------
Attempting to make child job directory: /tmp/SLURM_12490575/qchem51501//Frg1/
Attempting to make child job directory: /tmp/SLURM_12490575/qchem51501//Frg2/
Creating input file /tmp/SLURM_12490575/qchem51501/Frg1.input
using default PutDataFrgm: nothing
calling putenv with: QCSCRATCH=/tmp/SLURM_12490575/qchem51501/ 
calling putenv with: QCLOCALSCR=/tmp/SLURM_12490575/qchem51501/ 
Spawning Job For Fragment 0
Done Job For Fragment 0
calling putenv with: QCSCRATCH=/scratch1/patraa 
calling putenv with: QCLOCALSCR=/tmp/SLURM_12490575 
calling putenv with: QCTHREADS=16 
Creating input file /tmp/SLURM_12490575/qchem51501/Frg2.input
using default PutDataFrgm: nothing
calling putenv with: QCSCRATCH=/tmp/SLURM_12490575/qchem51501/ 
calling putenv with: QCLOCALSCR=/tmp/SLURM_12490575/qchem51501/ 
Spawning Job For Fragment 1
Done Job For Fragment 1
calling putenv with: QCSCRATCH=/scratch1/patraa 
calling putenv with: QCLOCALSCR=/tmp/SLURM_12490575 
calling putenv with: QCTHREADS=16 
Doing AO based SCFMI
 Exchange:     0.2220 Hartree-Fock + 1.0000 wB97X-D + LR-HF
 Correlation:  1.0000 wB97X-D
 Using SG-2 standard quadrature grid
 Dispersion:   Grimme D
performing fock build before subrot guess so that all methods have access
Energy of the unrelaxed supersystem initial determinant -986.643962292881
write pseudocanon occs and virts to disk
write pseudocanon orbital energies to disk
Doing AO based SCFMI
 Exchange:     0.2220 Hartree-Fock + 1.0000 wB97X-D + LR-HF
 Correlation:  1.0000 wB97X-D
 Using SG-2 standard quadrature grid
 Dispersion:   Grimme D
performing fock build at end of subrot_r(subrot) constructor so that all methods have access
<S^2> of initial wavefunction before polarization iterations 0.0000000000
Beginning iterations for the determination of the polarized wavefunction
Energy prior to optimization (guess energy) = -986.643962292881
Begin Timing: Total SCF Calculation
begin iterations for algorithm: DIIS         
the SCF tolerance is set to 1.00e-08
    1    -986.6439622929      7.54e-05     00000 
    2    -986.6448212276      4.96e-05     00000 
    3    -986.6450538702      1.96e-05     00000 
    4    -986.6450964818      8.79e-06     00000 
    5    -986.6451050682      2.25e-06     00000 
    6    -986.6451057339      1.05e-06     00000 
    7    -986.6451058779      3.76e-07     00000 
    8    -986.6451058987      1.08e-07     00000 
    9    -986.6451059008      4.83e-08     00000 
   10    -986.6451059012      1.92e-08     00000 
   11    -986.6451059013      6.36e-09     00000 Convergence criterion met
write pseudocanon occs and virts to disk
write pseudocanon orbital energies to disk
Timing for Total SCF: 56.00s (wall), 907.27s (cpu)
<S^2> of polarized wavefunction after polarization iterations 0.0000000000
relaxing scfmi constraint to allow all rotations in the collective span of polarization subspaces ==  collective AO span
Doing AO based SCFMI
 Exchange:     0.2220 Hartree-Fock + 1.0000 wB97X-D + LR-HF
 Correlation:  1.0000 wB97X-D
 Using SG-2 standard quadrature grid
 Dispersion:   Grimme D
performing fock build at end of subrot_r(subrot) constructor so that all methods have access
<S^2> of polarized wavefunction before ct-allowed iterations 0.0000000000
Beginning iterations for the determination of the CT-Allowed wavefunction
Energy prior to optimization (guess energy) = -986.645105901319
Begin Timing: Total SCF Calculation
begin iterations for algorithm: DIIS         
the SCF tolerance is set to 1.00e-08
    1    -986.6451059013      1.40e-04     00000 
    2    -986.6508354462      1.89e-05     00000 
    3    -986.6510682397      4.94e-06     00000 
    4    -986.6510789274      4.11e-06     00000 
    5    -986.6510827967      7.05e-07     00000 
    6    -986.6510831123      3.88e-07     00000 
    7    -986.6510831932      1.87e-07     00000 
    8    -986.6510832072      5.68e-08     00000 
    9    -986.6510832104      2.10e-08     00000 
   10    -986.6510832107      8.17e-09     00000 Convergence criterion met
write pseudocanon occs and virts to disk
write pseudocanon orbital energies to disk
Timing for Total SCF: 53.00s (wall), 837.39s (cpu)
<S^2> of ct_allowed wavefunction after ct-allowed iterations 0.0000000000

================================
        Results of EDA2         
================================
Basic EDA Quantities
--------------------
Fragment Energies (Ha):
1 -694.2542005845
2 -292.3882801133
--------------------
  E_prp (kJ/mol) = 0.0000
  E_frz (kJ/mol) = -3.8900
  E_pol (kJ/mol) = -3.0026
  E_vct (kJ/mol) = -15.6936
  E_int (kJ/mol) = -22.5862
--------------------


Decomposition of frozen interaction energy
--------------------
  --------------------
  Classical Frozen Decomposition:
  --------------------
     E_cls_elec  (CLS ELEC)  (kJ/mol) = -36.5783
     E_cls_pauli (CLS PAULI) (kJ/mol) = 32.6883
  --------------------
--------------------

Simplified EDA Summary (kJ/mol)
--------------------
 PREPARATION      0.0000
 FROZEN           -3.8900 (ELEC + PAULI + DISP)
 POLARIZATION    -3.0026
 CHARGE TRANSFER -15.6936
 TOTAL           -22.5862     (PRP + FRZ + POL + CT)
--------------------
 Full subspace dimension requested for CIS/TDDFT

 CIS/TDDFT memory preview:
 --------------------------
	NOV = NOa*NVa + NOb*NVb = 96120
	NRoots = 10, max iter = 30, max vectors = 48060
	Size of each subspace vector: 0.73 Mb
	Davidson algorithm may add up to 2 x NOV x NRoots (= 14.7 Mb) per iteration
	Max memory = 70488.4 Mb (worst case scenario)
	Currently available memory = 8000.0 Mb

	In case of problems:
	(a) increase memory (MEM_TOTAL = 70489 can hold 48060 subspace vectors), or
	(b) request fewer states (CIS_N_ROOTS = 1 will fit in current MEM_TOTAL), or
	(c) reduce MAX_CIS_SUBSPACE (= 5454 will fit in current MEM_TOTAL).
	Reducing MAX_CIS_SUBSPACE may hamper convergence.



================================================================
                     ALMO-EDA for CIS/TDDFT                     
================================================================
 Q. Ge, Y. Mao and M. Head-Gordon, JCP, 148, 064105 (2018)


 -------------------------------------------
 EDA Level: excited states with frozen almos  
 -------------------------------------------


---restricted CIS matrix-vector product A * t with given t-----


 ----------------------------------------------
    EDA Level: ALMO-CIS with polarized almos   
 ----------------------------------------------


------------------restricted CIS with Davidson------------------
N: 26590  isub: 10  left: 10  nroots: 10  max_itr: 30  max_space: 225  thresh: 0.000001
iteration 0
isub = 20  left = 10    max res = 1.36e-02
iteration 1
isub = 30  left = 10    max res = 6.68e-03
iteration 2
isub = 40  left = 10    max res = 9.89e-04
iteration 3
isub = 50  left = 10    max res = 4.04e-04
iteration 4
isub = 60  left = 10    max res = 2.08e-04
iteration 5
isub = 70  left = 10    max res = 7.74e-05
iteration 6
isub = 80  left = 10    max res = 3.25e-04
iteration 7
isub = 87  left = 7    max res = 2.65e-04
iteration 8
isub = 93  left = 6    max res = 1.68e-04
iteration 9
isub = 99  left = 6    max res = 1.03e-04
iteration 10
isub = 101  left = 2    max res = 7.35e-05
iteration 11
isub = 103  left = 2    max res = 3.75e-05
iteration 12
isub = 105  left = 2    max res = 2.35e-05
iteration 13
isub = 107  left = 2    max res = 1.21e-05
iteration 14
isub = 108  left = 1    max res = 5.78e-06
iteration 15
isub = 109  left = 1    max res = 2.88e-06
iteration 16
isub = 110  left = 1    max res = 1.86e-06
iteration 17
isub = 111  left = 1    max res = 1.01e-06
iteration 18
isub = 111  left = 0    max res = 5.28e-07
-----------------------------------
          Almo-CIS result          
-----------------------------------
  Excited state   1
   excitation energy (eV)   4.2546
   total energy (Eh)        -986.4887532105
   oscillator strength      1.3086
   x=  3.3970  y=  -0.9335  z=  0.3790
   Frg 1 Occ 60 --> Frg 1 Virt 3:  Amp = -0.1538
   Frg 1 Occ 61 --> Frg 1 Virt 1:  Amp = -0.9659

  Excited state   2
   excitation energy (eV)   4.7739
   total energy (Eh)        -986.4696690351
   oscillator strength      0.0004
   x=  -0.0157  y=  0.0434  z=  -0.0303
   Frg 1 Occ 57 --> Frg 1 Virt 1:  Amp = -0.3562
   Frg 1 Occ 58 --> Frg 1 Virt 1:  Amp =  0.4065
   Frg 1 Occ 59 --> Frg 1 Virt 1:  Amp =  0.2745
   Frg 1 Occ 61 --> Frg 1 Virt 2:  Amp =  0.7092

  Excited state   3
   excitation energy (eV)   5.0987
   total energy (Eh)        -986.4577325625
   oscillator strength      0.0028
   x=  0.0076  y=  -0.0678  z=  0.1329
   Frg 1 Occ 57 --> Frg 1 Virt 1:  Amp =  0.5101
   Frg 1 Occ 58 --> Frg 1 Virt 1:  Amp =  0.4233
   Frg 1 Occ 58 --> Frg 1 Virt 3:  Amp = -0.1829
   Frg 1 Occ 59 --> Frg 1 Virt 3:  Amp = -0.1864
   Frg 1 Occ 60 --> Frg 1 Virt 2:  Amp = -0.2283
   Frg 1 Occ 60 --> Frg 1 Virt 5:  Amp =  0.1913
   Frg 1 Occ 61 --> Frg 1 Virt 4:  Amp = -0.3531
   Frg 1 Occ 61 --> Frg 1 Virt 5:  Amp = -0.4435

  Excited state   4
   excitation energy (eV)   5.1944
   total energy (Eh)        -986.4542165356
   oscillator strength      0.0022
   x=  -0.0181  y=  -0.0553  z=  0.1192
   Frg 1 Occ 57 --> Frg 1 Virt 1:  Amp =  0.3369
   Frg 1 Occ 58 --> Frg 1 Virt 1:  Amp = -0.1724
   Frg 1 Occ 58 --> Frg 1 Virt 3:  Amp = -0.2100
   Frg 1 Occ 59 --> Frg 1 Virt 1:  Amp =  0.4606
   Frg 1 Occ 59 --> Frg 1 Virt 3:  Amp =  0.3437
   Frg 1 Occ 60 --> Frg 1 Virt 4:  Amp =  0.3734
   Frg 1 Occ 61 --> Frg 1 Virt 2:  Amp =  0.1574
   Frg 1 Occ 61 --> Frg 1 Virt 4:  Amp =  0.3910
   Frg 1 Occ 61 --> Frg 1 Virt 5:  Amp = -0.2990

  Excited state   5
   excitation energy (eV)   5.6989
   total energy (Eh)        -986.4356761755
   oscillator strength      0.0278
   x=  -0.3411  y=  0.2874  z=  0.0102
   Frg 1 Occ 58 --> Frg 1 Virt 2:  Amp =  0.1505
   Frg 1 Occ 59 --> Frg 1 Virt 4:  Amp = -0.2095
   Frg 1 Occ 60 --> Frg 1 Virt 1:  Amp =  0.7566
   Frg 1 Occ 61 --> Frg 1 Virt 3:  Amp =  0.4989

  Excited state   6
   excitation energy (eV)   5.9140
   total energy (Eh)        -986.4277721460
   oscillator strength      0.0150
   x=  0.2197  y=  -0.1067  z=  0.2090
   Frg 2 Occ 29 --> Frg 2 Virt 1:  Amp =  0.9348
   Frg 2 Occ 29 --> Frg 2 Virt 2:  Amp =  0.1760

  Excited state   7
   excitation energy (eV)   6.0066
   total energy (Eh)        -986.4243663811
   oscillator strength      0.0133
   x=  -0.0121  y=  -0.2737  z=  -0.1248
   Frg 1 Occ 57 --> Frg 1 Virt 1:  Amp = -0.2848
   Frg 1 Occ 58 --> Frg 1 Virt 1:  Amp =  0.4773
   Frg 1 Occ 59 --> Frg 1 Virt 1:  Amp =  0.4718
   Frg 1 Occ 61 --> Frg 1 Virt 2:  Amp = -0.6008
   Frg 2 Occ 29 --> Frg 2 Virt 1:  Amp = -0.1607

  Excited state   8
   excitation energy (eV)   6.0756
   total energy (Eh)        -986.4218307058
   oscillator strength      0.0010
   x=  0.0821  y=  -0.0017  z=  -0.0005
   Frg 1 Occ 56 --> Frg 1 Virt 3:  Amp =  0.1777
   Frg 1 Occ 60 --> Frg 1 Virt 1:  Amp =  0.5379
   Frg 1 Occ 60 --> Frg 1 Virt 6:  Amp =  0.1922
   Frg 1 Occ 61 --> Frg 1 Virt 3:  Amp = -0.7653

  Excited state   9
   excitation energy (eV)   6.3939
   total energy (Eh)        -986.4101351958
   oscillator strength      0.0183
   x=  0.2150  y=  0.2576  z=  -0.0630
   Frg 1 Occ 58 --> Frg 1 Virt 1:  Amp =  0.4722
   Frg 1 Occ 59 --> Frg 1 Virt 1:  Amp = -0.4537
   Frg 1 Occ 60 --> Frg 1 Virt 2:  Amp =  0.1502
   Frg 1 Occ 61 --> Frg 1 Virt 4:  Amp =  0.6545

  Excited state   10
   excitation energy (eV)   6.4250
   total energy (Eh)        -986.4089919338
   oscillator strength      0.0026
   x=  -0.0779  y=  -0.0419  z=  -0.0944
   Frg 2 Occ 29 --> Frg 2 Virt 2:  Amp = -0.5850
   Frg 2 Occ 29 --> Frg 2 Virt 3:  Amp = -0.6813
   Frg 2 Occ 29 --> Frg 2 Virt 4:  Amp = -0.2276
   Frg 2 Occ 29 --> Frg 2 Virt 6:  Amp =  0.1701



 --------------------------------------------
    EDA Level: FULL CIS with Canonical MOs   
 --------------------------------------------
 
 -------doing standard CIS----------
 
 ---------------------------------------------------
 Iter    Rts Conv    Rts Left    Ttl Dev     Max Dev
 ---------------------------------------------------
   1         0          10      0.002456    0.000440
   2         0          10      0.001031    0.000186
   3         0          10      0.000619    0.000142
   4         0          10      0.000530    0.000169
   5         0          10      0.000253    0.000059
   6         2           8      0.000116    0.000025
   7         3           7      0.000166    0.000120
   8         4           6      0.000102    0.000070
   9         5           5      0.000055    0.000029
  10         8           2      0.000026    0.000012
  11         8           2      0.000016    0.000007
  12         8           2      0.000009    0.000003
  13         8           2      0.000006    0.000002
  14        10           0      0.000004    0.000001    Roots Converged
 ---------------------------------------------------
 
 ---------------------------------------------------
         TDDFT/TDA Excitation Energies              
 ---------------------------------------------------

 Excited state   1: excitation energy (eV) =    3.0299
 Total energy for state  1:                  -986.53973583 au
    Multiplicity: Singlet
    Trans. Mom.: -0.8561 X   0.2024 Y  -0.0867 Z
    Strength   :     0.0580011943
    D(   90) --> V(    1) amplitude =  0.9641
    D(   90) --> V(    3) amplitude =  0.2387

 Excited state   2: excitation energy (eV) =    4.1455
 Total energy for state  2:                  -986.49874060 au
    Multiplicity: Singlet
    Trans. Mom.: -0.5571 X   0.0236 Y  -0.0382 Z
    Strength   :     0.0317296932
    D(   89) --> V(    1) amplitude = -0.2309
    D(   90) --> V(    2) amplitude =  0.8138
    D(   90) --> V(    4) amplitude = -0.3683
    D(   90) --> V(    5) amplitude = -0.2735

 Excited state   3: excitation energy (eV) =    4.2637
 Total energy for state  3:                  -986.49439676 au
    Multiplicity: Singlet
    Trans. Mom.:  3.1997 X  -0.8866 Y   0.3877 Z
    Strength   :     1.1672849005
    D(   89) --> V(    1) amplitude =  0.9342

 Excited state   4: excitation energy (eV) =    4.7062
 Total energy for state  4:                  -986.47813435 au
    Multiplicity: Singlet
    Trans. Mom.:  0.0646 X  -0.0711 Y  -0.0333 Z
    Strength   :     0.0011914843
    D(   85) --> V(    1) amplitude = -0.4942
    D(   87) --> V(    1) amplitude =  0.2321
    D(   89) --> V(    2) amplitude =  0.5345
    D(   89) --> V(    5) amplitude =  0.2279
    D(   90) --> V(    5) amplitude = -0.4736

 Excited state   5: excitation energy (eV) =    4.9411
 Total energy for state  5:                  -986.46950239 au
    Multiplicity: Singlet
    Trans. Mom.:  0.1095 X  -0.0022 Y   0.0725 Z
    Strength   :     0.0020882029
    D(   87) --> V(    1) amplitude =  0.4792
    D(   89) --> V(    2) amplitude =  0.4254
    D(   90) --> V(    2) amplitude =  0.3936
    D(   90) --> V(    5) amplitude =  0.4378

 Excited state   6: excitation energy (eV) =    5.1683
 Total energy for state  6:                  -986.46115020 au
    Multiplicity: Singlet
    Trans. Mom.: -0.0026 X  -0.0353 Y  -0.0184 Z
    Strength   :     0.0002017854
    D(   86) --> V(    1) amplitude = -0.5132
    D(   86) --> V(    3) amplitude =  0.3475
    D(   88) --> V(    4) amplitude =  0.3260
    D(   89) --> V(    4) amplitude = -0.5022
    D(   90) --> V(    5) amplitude = -0.2145

 Excited state   7: excitation energy (eV) =    5.1905
 Total energy for state  7:                  -986.46033459 au
    Multiplicity: Singlet
    Trans. Mom.: -0.0984 X  -0.1237 Y   0.1307 Z
    Strength   :     0.0053490430
    D(   85) --> V(    1) amplitude =  0.2269
    D(   90) --> V(    3) amplitude =  0.7289
    D(   90) --> V(    5) amplitude = -0.3597
    D(   90) --> V(    6) amplitude =  0.3342

 Excited state   8: excitation energy (eV) =    5.2268
 Total energy for state  8:                  -986.45900136 au
    Multiplicity: Singlet
    Trans. Mom.: -0.0018 X   0.2419 Y  -0.2382 Z
    Strength   :     0.0147610021
    D(   85) --> V(    1) amplitude = -0.4469
    D(   87) --> V(    1) amplitude = -0.2323
    D(   89) --> V(    5) amplitude =  0.3792
    D(   90) --> V(    3) amplitude =  0.4344
    D(   90) --> V(    4) amplitude =  0.2203
    D(   90) --> V(    5) amplitude =  0.3889

 Excited state   9: excitation energy (eV) =    5.6733
 Total energy for state  9:                  -986.44259198 au
    Multiplicity: Singlet
    Trans. Mom.: -0.4608 X   0.2297 Y  -0.1493 Z
    Strength   :     0.0399384839
    D(   88) --> V(    1) amplitude =  0.5554
    D(   89) --> V(    3) amplitude =  0.3869
    D(   90) --> V(    6) amplitude =  0.4129
    D(   90) --> V(    7) amplitude =  0.2564
    D(   90) --> V(   10) amplitude =  0.2954

 Excited state  10: excitation energy (eV) =    5.6889
 Total energy for state 10:                  -986.44202039 au
    Multiplicity: Singlet
    Trans. Mom.: -0.1087 X   0.1732 Y   0.2164 Z
    Strength   :     0.0123562454
    D(   88) --> V(    1) amplitude =  0.5250
    D(   89) --> V(    3) amplitude =  0.2709
    D(   90) --> V(    6) amplitude = -0.3730
    D(   90) --> V(    7) amplitude = -0.3872
    D(   90) --> V(    9) amplitude =  0.2536
    D(   90) --> V(   10) amplitude = -0.3769
 
 ---------------------------------------------------



-------------------------------------------
        summary of excited state eda       
-------------------------------------------

=====================================================
     Excitation energies at different EDA levels     
=====================================================
Subsystem excitation energies
 Excited state  1:  4.2438 eV
 Excited state  2:  4.7278 eV
 Excited state  3:  5.0457 eV
 Excited state  4:  5.1876 eV
 Excited state  5:  5.6942 eV
 Excited state  6:  5.9768 eV
 Excited state  7:  6.0424 eV
 Excited state  8:  6.3776 eV
 Excited state  9:  6.4610 eV
 Excited state 10:  6.6400 eV
Supersystem excitation energies at the frozen level (w_frz)
 Excited state  1:  4.2787 eV
 Excited state  2:  4.7759 eV
 Excited state  3:  5.1016 eV
 Excited state  4:  5.1940 eV
 Excited state  5:  5.7167 eV
 Excited state  6:  6.0248 eV
 Excited state  7:  6.0762 eV
 Excited state  8:  6.4025 eV
 Excited state  9:  6.4647 eV
 Excited state 10:  6.6637 eV
Supersystem excitation energies at the polarized level (w_pol)
 Excited state  1:  4.2546 eV
 Excited state  2:  4.7739 eV
 Excited state  3:  5.0987 eV
 Excited state  4:  5.1944 eV
 Excited state  5:  5.6989 eV
 Excited state  6:  5.9140 eV
 Excited state  7:  6.0066 eV
 Excited state  8:  6.0756 eV
 Excited state  9:  6.3939 eV
 Excited state 10:  6.4250 eV
Fully relaxed supersystem excitation energies (w_full)
 Excited state  1:  3.0299 eV
 Excited state  2:  4.1455 eV
 Excited state  3:  4.2637 eV
 Excited state  4:  4.7062 eV
 Excited state  5:  4.9411 eV
 Excited state  6:  5.1683 eV
 Excited state  7:  5.1905 eV
 Excited state  8:  5.2268 eV
 Excited state  9:  5.6733 eV
 Excited state 10:  5.6889 eV

=====================================================
    Decomposition of shifts in excitation energies   
=====================================================
Shifts in excitation energies due to frozen interaciton (dw_frz)
 Excited state  1:  0.0349 eV (  3.37 kJ/mol)
 Excited state  2:  0.0480 eV (  4.63 kJ/mol)
 Excited state  3:  0.0559 eV (  5.39 kJ/mol)
 Excited state  4:  0.0065 eV (  0.63 kJ/mol)
 Excited state  5:  0.0225 eV (  2.17 kJ/mol)
 Excited state  6:  0.0481 eV (  4.64 kJ/mol)
 Excited state  7:  0.0338 eV (  3.26 kJ/mol)
 Excited state  8:  0.0249 eV (  2.41 kJ/mol)
 Excited state  9:  0.0037 eV (  0.36 kJ/mol)
 Excited state 10:  0.0237 eV (  2.29 kJ/mol)
Shifts in excitation energies due to polarization (dw_pol)
 Excited state  1: -0.0241 eV ( -2.33 kJ/mol)
 Excited state  2: -0.0020 eV ( -0.19 kJ/mol)
 Excited state  3: -0.0029 eV ( -0.28 kJ/mol)
 Excited state  4:  0.0003 eV (  0.03 kJ/mol)
 Excited state  5: -0.0178 eV ( -1.72 kJ/mol)
 Excited state  6: -0.1109 eV (-10.70 kJ/mol)
 Excited state  7: -0.0696 eV ( -6.71 kJ/mol)
 Excited state  8: -0.3269 eV (-31.54 kJ/mol)
 Excited state  9: -0.0708 eV ( -6.83 kJ/mol)
 Excited state 10: -0.2387 eV (-23.03 kJ/mol)
Shifts in excitation energies due to charge transfer (dw_ct)
 Excited state  1: -1.2247 eV (-118.16 kJ/mol)
 Excited state  2: -0.6284 eV (-60.63 kJ/mol)
 Excited state  3: -0.8350 eV (-80.57 kJ/mol)
 Excited state  4: -0.4882 eV (-47.10 kJ/mol)
 Excited state  5: -0.7578 eV (-73.12 kJ/mol)
 Excited state  6: -0.7456 eV (-71.94 kJ/mol)
 Excited state  7: -0.8161 eV (-78.74 kJ/mol)
 Excited state  8: -0.8488 eV (-81.90 kJ/mol)
 Excited state  9: -0.7205 eV (-69.52 kJ/mol)
 Excited state 10: -0.7361 eV (-71.02 kJ/mol)

Further decomposition of the frozen contribution
Note: the classical Pauli term might dispersion if dispersion-corrected models are used
Shifts in excitation energies due to electrostatics (dw_cls_elec)
 Excited state  1: -0.0045 eV ( -0.43 kJ/mol)
 Excited state  2: -0.0097 eV ( -0.93 kJ/mol)
 Excited state  3: -0.0037 eV ( -0.36 kJ/mol)
 Excited state  4:  0.0010 eV (  0.10 kJ/mol)
 Excited state  5: -0.0064 eV ( -0.62 kJ/mol)
 Excited state  6: -0.0077 eV ( -0.74 kJ/mol)
 Excited state  7: -0.0013 eV ( -0.12 kJ/mol)
 Excited state  8: -0.0022 eV ( -0.22 kJ/mol)
 Excited state  9:  0.0022 eV (  0.21 kJ/mol)
 Excited state 10: -0.0045 eV ( -0.43 kJ/mol)
Shifts in excitation energies due to Pauli repulsion (dw_cls_pauli)
 Excited state  1:  0.0394 eV (  3.80 kJ/mol)
 Excited state  2:  0.0577 eV (  5.56 kJ/mol)
 Excited state  3:  0.0596 eV (  5.75 kJ/mol)
 Excited state  4:  0.0055 eV (  0.53 kJ/mol)
 Excited state  5:  0.0289 eV (  2.79 kJ/mol)
 Excited state  6:  0.0557 eV (  5.38 kJ/mol)
 Excited state  7:  0.0351 eV (  3.39 kJ/mol)
 Excited state  8:  0.0272 eV (  2.62 kJ/mol)
 Excited state  9:  0.0015 eV (  0.14 kJ/mol)
 Excited state 10:  0.0282 eV (  2.72 kJ/mol)
 
 --------------------------------------------------------------
 
                    Orbital Energies (a.u.)
 --------------------------------------------------------------
 
 Alpha MOs
 -- Occupied --
-14.3808 -10.3078 -10.3072 -10.3060 -10.3043 -10.2946 -10.2941 -10.2933
-10.2926 -10.2923 -10.2921 -10.2919 -10.2913 -10.2911 -10.2907 -10.2905
-10.2903 -10.2899 -10.2897 -10.2896 -10.2831 -10.2808 -10.2626 -10.2551
-10.2487  -1.0014  -0.9811  -0.9665  -0.9492  -0.8969  -0.8608  -0.8563
 -0.8534  -0.8500  -0.8467  -0.8436  -0.8093  -0.7941  -0.7425  -0.7256
 -0.7190  -0.7061  -0.7019  -0.6973  -0.6754  -0.6716  -0.6346  -0.6318
 -0.6148  -0.5793  -0.5752  -0.5690  -0.5666  -0.5457  -0.5426  -0.5388
 -0.5384  -0.5251  -0.5209  -0.5134  -0.5122  -0.5106  -0.5027  -0.4986
 -0.4949  -0.4820  -0.4774  -0.4701  -0.4672  -0.4594  -0.4581  -0.4482
 -0.4436  -0.4427  -0.4396  -0.4323  -0.4296  -0.4239  -0.4230  -0.4131
 -0.4068  -0.4034  -0.3956  -0.3745  -0.3384  -0.3353  -0.3340  -0.3328
 -0.2798  -0.2369
 -- Virtual --
 -0.0054   0.0446   0.0562   0.0578   0.0713   0.1081   0.1112   0.1214
  0.1266   0.1304   0.1344   0.1457   0.1565   0.1605   0.1612   0.1650
  0.1737   0.1813   0.1823   0.1869   0.1931   0.1975   0.1986   0.2027
  0.2139   0.2209   0.2221   0.2322   0.2368   0.2416   0.2444   0.2511
  0.2577   0.2603   0.2630   0.2685   0.2702   0.2744   0.2836   0.2903
  0.3017   0.3109   0.3143   0.3158   0.3206   0.3253   0.3319   0.3464
  0.3497   0.3533   0.3581   0.3624   0.3671   0.3708   0.3827   0.3893
  0.3920   0.3964   0.3989   0.4055   0.4089   0.4138   0.4220   0.4249
  0.4307   0.4331   0.4440   0.4621   0.4631   0.4668   0.4689   0.4734
  0.4740   0.4831   0.4911   0.4947   0.4973   0.5002   0.5084   0.5097
  0.5161   0.5203   0.5233   0.5261   0.5299   0.5311   0.5320   0.5387
  0.5478   0.5488   0.5540   0.5607   0.5687   0.5794   0.5878   0.5970
  0.5993   0.6058   0.6132   0.6215   0.6231   0.6286   0.6344   0.6403
  0.6409   0.6503   0.6509   0.6620   0.6631   0.6661   0.6711   0.6766
  0.6796   0.6817   0.6842   0.6851   0.6889   0.6910   0.6939   0.7005
  0.7045   0.7052   0.7098   0.7118   0.7136   0.7155   0.7203   0.7225
  0.7277   0.7311   0.7361   0.7394   0.7402   0.7428   0.7483   0.7606
  0.7675   0.7726   0.7775   0.7859   0.7886   0.8001   0.8105   0.8158
  0.8200   0.8244   0.8314   0.8366   0.8401   0.8473   0.8538   0.8556
  0.8652   0.8780   0.8816   0.8876   0.8971   0.9038   0.9152   0.9170
  0.9191   0.9270   0.9329   0.9369   0.9442   0.9447   0.9608   0.9703
  0.9780   0.9808   0.9934   1.0083   1.0112   1.0272   1.0343   1.0401
  1.0474   1.0542   1.0667   1.0733   1.0847   1.0906   1.0951   1.0975
  1.1122   1.1217   1.1307   1.1399   1.1480   1.1527   1.1604   1.1654
  1.1745   1.1816   1.1866   1.1893   1.2060   1.2125   1.2242   1.2298
  1.2357   1.2400   1.2424   1.2526   1.2621   1.2842   1.2953   1.3217
  1.3319   1.3365   1.3504   1.3561   1.3637   1.3748   1.3918   1.3981
  1.4210   1.4409   1.4662   1.4822   1.4962   1.5013   1.5100   1.5171
  1.5265   1.5350   1.5376   1.5393   1.5410   1.5471   1.5509   1.5513
  1.5614   1.5684   1.5742   1.5788   1.5832   1.5898   1.6008   1.6096
  1.6148   1.6202   1.6240   1.6325   1.6385   1.6423   1.6454   1.6536
  1.6572   1.6632   1.6665   1.6720   1.6772   1.6823   1.6844   1.6910
  1.7007   1.7046   1.7103   1.7153   1.7196   1.7264   1.7341   1.7401
  1.7458   1.7531   1.7582   1.7650   1.7710   1.7719   1.7803   1.7912
  1.7998   1.8123   1.8190   1.8232   1.8340   1.8377   1.8424   1.8451
  1.8514   1.8533   1.8594   1.8613   1.8686   1.8721   1.8754   1.8858
  1.8897   1.8948   1.9050   1.9139   1.9255   1.9357   1.9452   1.9499
  1.9598   1.9654   1.9723   1.9794   1.9819   1.9860   1.9943   2.0037
  2.0068   2.0130   2.0166   2.0233   2.0308   2.0340   2.0431   2.0440
  2.0577   2.0588   2.0633   2.0740   2.0785   2.0875   2.0937   2.0976
  2.1064   2.1179   2.1227   2.1274   2.1333   2.1516   2.1570   2.1683
  2.1713   2.1755   2.1773   2.1948   2.2054   2.2123   2.2228   2.2393
  2.2701   2.2714   2.2813   2.2872   2.3008   2.3155   2.3439   2.3622
  2.3687   2.3756   2.3808   2.3873   2.3975   2.4026   2.4141   2.4174
  2.4275   2.4316   2.4386   2.4413   2.4580   2.4650   2.4710   2.4773
  2.4833   2.4943   2.5030   2.5092   2.5095   2.5165   2.5193   2.5311
  2.5374   2.5521   2.5616   2.5761   2.5859   2.5958   2.6177   2.6316
  2.6389   2.6527   2.6578   2.6612   2.6634   2.6743   2.6751   2.6773
  2.6893   2.6923   2.6995   2.7043   2.7067   2.7136   2.7198   2.7252
  2.7300   2.7338   2.7443   2.7509   2.7545   2.7621   2.7671   2.7727
  2.7733   2.7806   2.7845   2.7861   2.7891   2.7993   2.8018   2.8141
  2.8196   2.8228   2.8282   2.8365   2.8373   2.8455   2.8596   2.8720
  2.8737   2.8817   2.8895   2.8978   2.9131   2.9167   2.9246   2.9348
  2.9420   2.9451   2.9554   2.9591   2.9843   2.9845   2.9916   3.0046
  3.0104   3.0108   3.0201   3.0251   3.0404   3.0436   3.0576   3.0592
  3.0936   3.0991   3.1094   3.1272   3.1422   3.1661   3.1936   3.2074
  3.2242   3.2450   3.2790   3.3143   3.3303   3.3366   3.3541   3.3560
  3.4079   3.4382   3.4428   3.4594   3.5057   3.5128   3.5414   3.5737
  3.5843   3.5969   3.6160   3.6379   3.6568   3.6756   3.6906   3.7003
  3.7124   3.7429   3.7634   3.8088   3.8886   3.8998   3.9127   3.9163
  3.9278   3.9317   3.9453   3.9579   3.9762   3.9893   4.0199   4.0607
  4.0715   4.1066   4.1278   4.1464   4.1843   4.2255   4.2287   4.2326
  4.2652   4.2803   4.3089   4.3189   4.3405   4.4320   4.5446   4.7478
  4.8780   4.9206   4.9536   5.0619   5.1356  23.6020  23.7429  23.8615
 23.9862  24.0096  24.0210  24.0312  24.0477  24.0520  24.0606  24.0651
 24.0836  24.1048  24.1073  24.1212  24.1367  24.1548  24.1956  24.2414
 24.2586  24.2687  24.3137  24.3191  24.3303  35.7321
 --------------------------------------------------------------
 
          Ground-State Mulliken Net Atomic Charges

     Atom                 Charge (a.u.)
  ----------------------------------------
      1 C                    -0.014925
      2 C                    -0.067089
      3 H                     0.102553
      4 C                    -0.101428
      5 H                     0.112756
      6 C                    -0.135969
      7 H                     0.110244
      8 C                    -0.094985
      9 H                     0.107359
     10 C                    -0.110815
     11 H                     0.112933
     12 C                    -0.045677
     13 C                    -0.111530
     14 H                     0.108934
     15 C                    -0.091761
     16 H                     0.109743
     17 C                    -0.007866
     18 C                    -0.099259
     19 H                     0.106851
     20 C                    -0.104549
     21 H                     0.106319
     22 C                    -0.040965
     23 C                    -0.091149
     24 H                     0.110466
     25 C                    -0.108575
     26 H                     0.109024
     27 C                    -0.101691
     28 H                     0.110456
     29 C                    -0.108559
     30 H                     0.109245
     31 C                    -0.092021
     32 H                     0.111608
     33 C                    -0.298413
     34 C                    -0.118064
     35 N                    -0.409844
     36 H                     0.104878
     37 H                     0.104971
     38 H                     0.134313
     39 H                     0.104602
     40 C                    -0.048816
     41 H                     0.089243
     42 H                     0.129000
     43 H                     0.116601
     44 C                    -0.363324
     45 H                     0.105657
     46 H                     0.117972
     47 H                     0.120867
     48 C                    -0.144779
     49 H                     0.110961
     50 H                     0.108928
     51 C                    -0.285625
     52 H                     0.101093
     53 H                     0.111116
     54 H                     0.108984
  ----------------------------------------
  Sum of atomic charges =     0.000000

 -----------------------------------------------------------------
                    Cartesian Multipole Moments
 -----------------------------------------------------------------
    Charge (ESU x 10^10)
                -0.0000
    Dipole Moment (Debye)
         X      -0.2372      Y      -0.2226      Z      -0.0025
       Tot       0.3253
    Quadrupole Moments (Debye-Ang)
        XX    -139.6535     XY      -5.7764     YY    -158.6095
        XZ      -1.8149     YZ      -9.7696     ZZ    -143.8741
    Octopole Moments (Debye-Ang^2)
       XXX    -929.0983    XXY    -260.9394    XYY    -365.8025
       YYY    -808.6766    XXZ     -48.8143    XYZ     -12.1720
       YYZ     -82.0504    XZZ    -299.2851    YZZ    -257.9042
       ZZZ    -167.0422
    Hexadecapole Moments (Debye-Ang^3)
      XXXX  -13748.9728   XXXY   -1584.6172   XXYY   -3464.2703
      XYYY   -1483.4190   YYYY   -5621.2382   XXXZ   -1019.7451
      XXYZ    -207.8792   XYYZ    -300.1046   YYYZ    -322.8919
      XXZZ   -2612.3185   XYZZ    -454.8132   YYZZ   -1142.7817
      XZZZ   -1002.6218   YZZZ    -246.4835   ZZZZ   -1574.5505
 -----------------------------------------------------------------
 Total job time:  2076.83s(wall), 20428.41s(cpu) 
 Fri Nov 25 09:45:40 2022

        *************************************************************
        *                                                           *
        *  Thank you very much for using Q-Chem.  Have a nice day.  *
        *                                                           *
        *************************************************************


remove work dirs /tmp/SLURM_12490575/qchem51501.0 -- /tmp/SLURM_12490575/qchem51501.-1
rm -rf /tmp/SLURM_12490575/qchem51501
