
Running Job 1 of 1 e_5.87_1.0_-1.inp
qchem e_5.87_1.0_-1.inp_13400.0 /tmp/SLURM_8399927/scratch/ 0
/spack/apps/linux-centos7-x86_64/gcc-8.3.0/qchem-5.4.2/openmp/exe/qcprog.exe_s e_5.87_1.0_-1.inp_13400.0 /tmp/SLURM_8399927/scratch/
                  Welcome to Q-Chem
     A Quantum Leap Into The Future Of Chemistry


 Q-Chem 5.4, Q-Chem, Inc., Pleasanton, CA (2021)

 License issued to: University of Southern California

 E. Epifanovsky,  A. T. B. Gilbert,  Xintian Feng,  Joonho Lee,  Yuezhi Mao,  
 N. Mardirossian,  P. Pokhilko,  A. White,  M. Wormit,  M. P. Coons,  
 A. L. Dempwolff,  Zhengting Gan,  D. Hait,  P. R. Horn,  L. D. Jacobson,  
 I. Kaliman,  J. Kussmann,  A. W. Lange,  Ka Un Lao,  D. S. Levine,  Jie Liu,  
 S. C. McKenzie,  A. F. Morrison,  K. Nanda,  F. Plasser,  D. R. Rehn,  
 M. L. Vidal,  Zhi-Qiang You,  Ying Zhu,  B. Alam,  B. Albrecht,  
 A. Aldossary,  E. Alguire,  J. H. Andersen,  D. Barton,  K. Begam,  A. Behn,  
 Y. A. Bernard,  E. J. Berquist,  H. Burton,  A. Carreras,  K. Carter-Fenk,  
 Romit Chakraborty,  A. D. Chien,  K. D. Closser,  V. Cofer-Shabica,  
 S. Dasgupta,  Jia Deng,  M. de Wergifosse,  M. Diedenhofen,  Hainam Do,  
 S. Ehlert,  Po-Tung Fang,  S. Fatehi,  Qingguo Feng,  T. Friedhoff,  
 J. Gayvert,  Qinghui Ge,  G. Gidofalvi,  M. Goldey,  J. Gomes,  
 C. Gonzalez-Espinoza,  S. Gulania,  A. Gunina,  M. W. D. Hanson-Heine,  
 P. H. P. Harbach,  A. W. Hauser,  M. F. Herbst,  M. Hernandez Vera,  
 M. Hodecker,  Z. C. Holden,  S. Houck,  Xunkun Huang,  Kerwin Hui,  
 B. C. Huynh,  M. Ivanov,  Hyunjun Ji,  Hanjie Jiang,  B. Kaduk,  S. Kaehler,  
 K. Khistyaev,  Jaehoon Kim,  P. Klunzinger,  Z. Koczor-Benda,  
 Joong Hoon Koh,  D. Kosenkov,  L. Koulias,  T. Kowalczyk,  C. M. Krauter,  
 K. Kue,  A. Kunitsa,  T. Kus,  A. Landau,  K. V. Lawler,  D. Lefrancois,  
 S. Lehtola,  Rain Li,  Yi-Pei Li,  Jiashu Liang,  M. Liebenthal,  
 Hung-Hsuan Lin,  You-Sheng Lin,  Fenglai Liu,  Kuan-Yu Liu,  
 M. Loipersberger,  A. Luenser,  A. Manjanath,  P. Manohar,  E. Mansoor,  
 S. F. Manzer,  Shan-Ping Mao,  A. V. Marenich,  T. Markovich,  S. Mason,  
 S. A. Maurer,  P. F. McLaughlin,  M. F. S. J. Menger,  J.-M. Mewes,  
 S. A. Mewes,  P. Morgante,  J. W. Mullinax,  K. J. Oosterbaan,  G. Paran,  
 Alexander C. Paul,  Suranjan K. Paul,  F. Pavosevic,  Zheng Pei,  S. Prager,  
 E. I. Proynov,  E. Ramos,  B. Rana,  A. E. Rask,  A. Rettig,  R. M. Richard,  
 F. Rob,  E. Rossomme,  T. Scheele,  M. Scheurer,  M. Schneider,  
 N. Sergueev,  S. M. Sharada,  W. Skomorowski,  D. W. Small,  C. J. Stein,  
 Yu-Chuan Su,  E. J. Sundstrom,  Zhen Tao,  J. Thirman,  T. Tsuchimochi,  
 N. M. Tubman,  S. P. Veccham,  O. Vydrov,  J. Wenzel,  J. Witte,  A. Yamada,  
 Kun Yao,  S. Yeganeh,  S. R. Yost,  A. Zech,  Igor Ying Zhang,  Xing Zhang,  
 Yu Zhang,  D. Zuev,  A. Aspuru-Guzik,  A. T. Bell,  N. A. Besley,  
 K. B. Bravaya,  B. R. Brooks,  D. Casanova,  Jeng-Da Chai,  S. Coriani,  
 C. J. Cramer,  A. E. DePrince, III,  R. A. DiStasio Jr.,  A. Dreuw,  
 B. D. Dunietz,  T. R. Furlani,  W. A. Goddard III,  S. Grimme,  
 S. Hammes-Schiffer,  T. Head-Gordon,  W. J. Hehre,  Chao-Ping Hsu,  
 T.-C. Jagau,  Yousung Jung,  A. Klamt,  Jing Kong,  D. S. Lambrecht,  
 WanZhen Liang,  N. J. Mayhall,  C. W. McCurdy,  J. B. Neaton,  T. Neudecker,  
 C. Ochsenfeld,  J. A. Parkhill,  R. Peverati,  V. A. Rassolov,  Yihan Shao,  
 L. V. Slipchenko,  R. P. Steele,  J. E. Subotnik,  A. J. W. Thom,  
 A. Tkatchenko,  D. G. Truhlar,  T. Van Voorhis,  T. A. Wesolowski,  
 K. B. Whaley,  H. L. Woodcock III,  P. M. Zimmerman,  S. Faraji,  
 P. M. W. Gill,  M. Head-Gordon,  J. M. Herbert,  A. I. Krylov

 Additional authors since Version 5.4.0: 
 Chandrima Chakravarty,  L. Cunha,  R. Kang,  Yongbin Kim,  S. Kotaru,  
 Shaozhi Li,  Xiangyuan Li,  F. Matz,  A. Molle,  V. Parravicini,  
 Haisheng Ren,  Hengyuan Shen,  Yingli Su,  Hung-Yi Tsai,  C. Utku,  
 Fang Wang,  Jeff Yang,  F. Zeller

 Contributors to earlier versions of Q-Chem not listed above: 
 R. D. Adamson,  B. Austin,  R. Baer,  J. Baker,  G. J. O. Beran,  
 K. Brandhorst,  S. T. Brown,  E. F. C. Byrd,  Arup K. Chakraborty,  
 G. K. L. Chan,  Chun-Min Chang,  Yunqing Chen,  C.-L. Cheng,  
 Siu Hung Chien,  D. M. Chipman,  D. L. Crittenden,  H. Dachsel,  
 R. J. Doerksen,  A. D. Dutoi,  R. G. Edgar,  J. Fosso-Tande,  
 L. Fusti-Molnar,  D. Ghosh,  A. Ghysels,  A. Golubeva-Zadorozhnaya,  
 J. Gonthier,  M. S. Gordon,  S. R. Gwaltney,  G. Hawkins,  J. E. Herr,  
 A. Heyden,  S. Hirata,  E. G. Hohenstein,  G. Kedziora,  F. J. Keil,  
 C. Kelley,  Jihan Kim,  R. A. King,  R. Z. Khaliullin,  P. P. Korambath,  
 W. Kurlancheek,  A. Laurent,  A. M. Lee,  M. S. Lee,  S. V. Levchenko,  
 Ching Yeh Lin,  D. Liotard,  E. Livshits,  R. C. Lochan,  I. Lotan,  
 L. A. Martinez-Martinez,  P. E. Maslen,  N. Nair,  D. P. O'Neill,  
 D. Neuhauser,  E. Neuscamman,  C. M. Oana,  R. Olivares-Amaya,  R. Olson,  
 T. M. Perrine,  B. Peters,  P. A. Pieniazek,  A. Prociuk,  Y. M. Rhee,  
 J. Ritchie,  M. A. Rohrdanz,  E. Rosta,  N. J. Russ,  H. F. Schaefer III,  
 M. W. Schmidt,  N. E. Schultz,  S. Sharma,  N. Shenvi,  C. D. Sherrill,  
 A. C. Simmonett,  A. Sodt,  T. Stein,  D. Stuck,  K. S. Thanthiriwatte,  
 V. Vanovschi,  L. Vogt,  Tao Wang,  A. Warshel,  M. A. Watson,  
 C. F. Williams,  Q. Wu,  X. Xu,  Jun Yang,  W. Zhang,  Yan Zhao

   Please cite Q-Chem as follows:
  "Software for the frontiers of quantum chemistry:
   An overview of developments in the Q-Chem 5 package"
   J. Chem. Phys. 155, 084801 (2021)
   https://doi.org/10.1063/5.0055522 (open access)

 Q-Chem 5.4.2 for Intel X86 EM64T Linux

 Parts of Q-Chem use Armadillo 9.900.5 (Nocturnal Misbehaviour).
 http://arma.sourceforge.net/

 Q-Chem begins on Wed Sep 21 23:56:54 2022  

 Host: 
0

     Scratch files written to /tmp/SLURM_8399927/scratch//
 Dec1321 |scratch|qcdevops|jenkins|workspace|build_RNUM 6013   
 Processing $rem in /spack/apps/linux-centos7-x86_64/gcc-8.3.0/qchem-5.4.2/openmp/config/preferences:
 Processing $rem in /home1/patraa/.qchemrc:
 Symmetry turned off for PCM/SM12/SMD calculation

 Checking the input file for inconsistencies... 	...done.

--------------------------------------------------------------
User input:
--------------------------------------------------------------
$molecule
0 1
C      2.6312270555      4.5860938404      0.9929620262
C      3.1115578424      3.1599210812      0.6913211040
N      4.5319426774      2.9937922819      0.8456010150
H      2.9476454837      4.9110966187      1.9861268961
H      2.9947980867      5.2999718216      0.2527920001
H      2.6022235583      2.4490057282      1.3345778152
H      1.5417617905      4.5821872138      0.9578749899
C      5.1451131746      2.5182563151      2.0631031793
H      5.8808282025      3.2688680309      2.3702971988
H      5.7307561439      1.6284915650      1.7798873582
H      2.8611816734      2.8941899602     -0.3377467479
C      4.2017778667      2.1953496572      3.2032924318
H      3.5263593970      1.3796952029      2.9453643518
H      4.8019663197      1.8716744893      4.0547785788
H      3.6162678358      3.0647890818      3.5109882633
C      5.4255600954      3.5440992666     -0.1631468041
H      6.2421838392      2.8330517886     -0.2849800909
H      4.8719779445      3.5843652548     -1.1000558952
C      5.9826736212      4.9237997649      0.1985960453
H      6.6042723683      5.2663572870     -0.6295041248
H      5.1912109244      5.6556375301      0.3590673758
H      6.6075354058      4.8845445605      1.0921799119
C      3.7647078540     -0.0664209955      0.2269652169
C      4.7485558576      0.3191199670     -0.7484756426
H      4.4322412949      0.7700383820     -1.6814998955
C      6.0996287020      0.1448417680     -0.5271231929
H      6.8039301874      0.4586675127     -1.2927369588
C      6.5800827102     -0.4111838192      0.6641446172
H      7.6412306613     -0.5559425893      0.8270532656
C      5.6317658332     -0.8841493097      1.5998822144
H      5.9749826557     -1.3877560168      2.4986894291
C      4.2843875295     -0.7240710016      1.3936921528
H      3.5982239537     -1.1272425909      2.1294352614
C      2.3783128148      0.2263471258      0.0634793590
C      1.8385807061      0.7341384577     -1.1623727891
H      2.4403320540      0.7190136259     -2.0637661935
C      0.5500735045      1.2098385853     -1.2521311355
H      0.1958319424      1.5602690093     -2.2169698288
C     -0.3299577617      1.2161407637     -0.1515474401
C      0.1631963186      0.6396643919      1.0402382400
H     -0.4725292876      0.6072264827      1.9197705088
C      1.4453869230      0.1554635817      1.1469295345
H      1.7629166871     -0.2417625090      2.1043077484
C     -1.6826875700      1.7822797717     -0.2445456890
C     -2.7343576057      1.3218403251      0.5660794332
H     -2.5579991335      0.5043679739      1.2562814500
C     -4.0059931969      1.8704272263      0.4822469516
H     -4.7950951905      1.4876172647      1.1208736375
C     -4.2784262980      2.8925429653     -0.4219594243
H     -5.2729300295      3.3187014079     -0.4891624163
C     -3.2528397259      3.3595794305     -1.2374751482
H     -3.4446225393      4.1594669186     -1.9450596846
C     -1.9778859875      2.8194761832     -1.1461282566
H     -1.1893631707      3.2232223703     -1.7715882030
$end

$rem
basis = 6-311g**
cis_state_deriv = 1
job_type = optimization
method = wb97xd
geom_opt_dmax = 20
geom_opt_tol_gradient = 20
geom_opt_max_cycles = 200
max_cis_cycles = 100
cis_n_roots = 10
cis_singlets = 1
cis_triplets = 0
rpa = 2
mem_static = 2000
mem_total = 16000
solvent_method = pcm
scf_convergence = 8
symmetry = false
symmetry_ignore = 1
thresh = 14
$end

$pcm
heavypoints 590
method swig
radii bondi
solver inversion
theory cpcm
$end

$solvent
dielectric 2.03
opticaldielectric 2.01
$end
--------------------------------------------------------------
 ----------------------------------------------------------------
             Standard Nuclear Orientation (Angstroms)
    I     Atom           X                Y                Z
 ----------------------------------------------------------------
    1      C       2.6312270555     4.5860938404     0.9929620262
    2      C       3.1115578424     3.1599210812     0.6913211040
    3      N       4.5319426774     2.9937922819     0.8456010150
    4      H       2.9476454837     4.9110966187     1.9861268961
    5      H       2.9947980867     5.2999718216     0.2527920001
    6      H       2.6022235583     2.4490057282     1.3345778152
    7      H       1.5417617905     4.5821872138     0.9578749899
    8      C       5.1451131746     2.5182563151     2.0631031793
    9      H       5.8808282025     3.2688680309     2.3702971988
   10      H       5.7307561439     1.6284915650     1.7798873582
   11      H       2.8611816734     2.8941899602    -0.3377467479
   12      C       4.2017778667     2.1953496572     3.2032924318
   13      H       3.5263593970     1.3796952029     2.9453643518
   14      H       4.8019663197     1.8716744893     4.0547785788
   15      H       3.6162678358     3.0647890818     3.5109882633
   16      C       5.4255600954     3.5440992666    -0.1631468041
   17      H       6.2421838392     2.8330517886    -0.2849800909
   18      H       4.8719779445     3.5843652548    -1.1000558952
   19      C       5.9826736212     4.9237997649     0.1985960453
   20      H       6.6042723683     5.2663572870    -0.6295041248
   21      H       5.1912109244     5.6556375301     0.3590673758
   22      H       6.6075354058     4.8845445605     1.0921799119
   23      C       3.7647078540    -0.0664209955     0.2269652169
   24      C       4.7485558576     0.3191199670    -0.7484756426
   25      H       4.4322412949     0.7700383820    -1.6814998955
   26      C       6.0996287020     0.1448417680    -0.5271231929
   27      H       6.8039301874     0.4586675127    -1.2927369588
   28      C       6.5800827102    -0.4111838192     0.6641446172
   29      H       7.6412306613    -0.5559425893     0.8270532656
   30      C       5.6317658332    -0.8841493097     1.5998822144
   31      H       5.9749826557    -1.3877560168     2.4986894291
   32      C       4.2843875295    -0.7240710016     1.3936921528
   33      H       3.5982239537    -1.1272425909     2.1294352614
   34      C       2.3783128148     0.2263471258     0.0634793590
   35      C       1.8385807061     0.7341384577    -1.1623727891
   36      H       2.4403320540     0.7190136259    -2.0637661935
   37      C       0.5500735045     1.2098385853    -1.2521311355
   38      H       0.1958319424     1.5602690093    -2.2169698288
   39      C      -0.3299577617     1.2161407637    -0.1515474401
   40      C       0.1631963186     0.6396643919     1.0402382400
   41      H      -0.4725292876     0.6072264827     1.9197705088
   42      C       1.4453869230     0.1554635817     1.1469295345
   43      H       1.7629166871    -0.2417625090     2.1043077484
   44      C      -1.6826875700     1.7822797717    -0.2445456890
   45      C      -2.7343576057     1.3218403251     0.5660794332
   46      H      -2.5579991335     0.5043679739     1.2562814500
   47      C      -4.0059931969     1.8704272263     0.4822469516
   48      H      -4.7950951905     1.4876172647     1.1208736375
   49      C      -4.2784262980     2.8925429653    -0.4219594243
   50      H      -5.2729300295     3.3187014079    -0.4891624163
   51      C      -3.2528397259     3.3595794305    -1.2374751482
   52      H      -3.4446225393     4.1594669186    -1.9450596846
   53      C      -1.9778859875     2.8194761832    -1.1461282566
   54      H      -1.1893631707     3.2232223703    -1.7715882030
 ----------------------------------------------------------------
 Nuclear Repulsion Energy =        2143.34422235 hartrees
 There are       90 alpha and       90 beta electrons
 Requested basis set is 6-311G(d,p)
 There are 241 shells and 624 basis functions

 Total QAlloc Memory Limit  16000 MB
 Mega-Array Size      1956 MB
 MEM_STATIC part      2000 MB
 Discretize the solute cavity surface with Lebedev spheres
	Using 110 Lebedev grid points for each H atom
	Using 590 Lebedev grid points for other atoms
	Atomic van der Waals radii will be scaled by 1.20
 Remove points where switching function is < 1.0e-08
 Keep 5845 surface tesserae and discard 12095 interior tesserae
 Molecular Surface Area = 400.053 Angst**2
 A cutoff of  1.0D-14 yielded  19224 shell pairs
 There are    129731 function pairs (    139975 Cartesian)
 Smallest overlap matrix eigenvalue = 1.29E-04

 Scale SEOQF with 1.000000e-02/1.000000e-02/1.000000e-01

 Standard Electronic Orientation quadrupole field applied
 Nucleus-field energy     =    -0.0000000131 hartrees
 Guess from superposition of atomic densities
 Warning:  Energy on first SCF cycle will be non-variational
 SAD guess density has 180.000000 electrons

 -----------------------------------------------------------------------
  General SCF calculation program by
  Eric Jon Sundstrom, Paul Horn, Yuezhi Mao, Dmitri Zuev, Alec White,
  David Stuck, Shaama M.S., Shane Yost, Joonho Lee, David Small,
  Daniel Levine, Susi Lehtola, Hugh Burton, Evgeny Epifanovsky,
  Bang C. Huynh
 -----------------------------------------------------------------------
 Exchange:     0.2220 Hartree-Fock + 1.0000 wB97X-D + LR-HF
 Correlation:  1.0000 wB97X-D
 Using SG-2 standard quadrature grid
 Dispersion:   Grimme D
 using 20 threads for integral computing
 -------------------------------------------------------
 OpenMP Integral computing Module                
 Release: version 1.0, May 2013, Q-Chem Inc. Pittsburgh 
 -------------------------------------------------------
 A restricted SCF calculation will be
 performed using DIIS
 SCF converges when DIIS error is below 1.0e-08
 ---------------------------------------
  Cycle       Energy         DIIS error
 ---------------------------------------
    1    -994.6343801514      2.78e-02  
    2    -986.4560939710      1.93e-03  
    3    -986.5701903181      1.37e-03  
    4    -986.6557297012      2.11e-04  
    5    -986.6573032668      1.21e-04  
    6    -986.6579358559      1.84e-05  
    7    -986.6579536307      6.67e-06  
    8    -986.6579564454      2.96e-06  
    9    -986.6579571273      9.48e-07  
   10    -986.6579572140      2.66e-07  
   11    -986.6579572261      9.77e-08  
   12    -986.6579572272      3.65e-08  
   13    -986.6579572274      1.19e-08  
   14    -986.6579572274      5.08e-09  Convergence criterion met
 ---------------------------------------
 SCF time:   CPU 5012.34s  wall 349.00s 

************** Final PCM Free Energy Summary **************
 G_electrostatic  =      -0.00671707 hartree =      -4.21502531 kcal/mol
 G_cavitation     =       0.00000000 hartree =       0.00000000 kcal/mol
 G_dispersion     =       0.00000000 hartree =       0.00000000 kcal/mol
 G_repulsion      =       0.00000000 hartree =       0.00000000 kcal/mol
 --------------------------------------------------
 Non-electrostatic Free Energy =       0.00000000 hartree =       0.00000000 kcal/mol
 Total                         =      -0.00671707 hartree =      -4.21502531 kcal/mol
 --------------------------------------------------
 SCF Energy (H0 + V/2)                       =    -986.65795723 
 Solute Internal Energy (H0)                 =    -986.65124016 
 Total Free Energy (H0 + V/2 + non-elec)     =    -986.65795723 hartree
                                             = -619137.21279771 kcal/mol
***********************************************************

 SCF   energy in the final basis set =     -986.6579572274
 Total energy in the final basis set =     -986.6579572274
 
 MAX_CIS_SUBSPACE fits in available memory
 Adding PCM contribution to the XC response (LR-PCM)
 CIS energy converged when residual is below 10e- 6

 Direct TDDFT calculation will be performed
 Exchange:     0.2220 Hartree-Fock + 1.0000 wB97X-D + LR-HF
 Correlation:  1.0000 wB97X-D
 Using SG-2 standard quadrature grid
 Dispersion:   Grimme D
 ---------------------------------------------------
 Iter    Rts Conv    Rts Left    Ttl Dev     Max Dev
 ---------------------------------------------------
   1         0          10      0.004367    0.000716
   2         0          10      0.001590    0.000249
   3         0          10      0.001484    0.000267
   4         0          10      0.000959    0.000175
   5         0          10      0.000654    0.000138
   6         0          10      0.000381    0.000079
   7         0          10      0.000199    0.000048
   8         0          10      0.000132    0.000041
   9         2           8      0.000050    0.000013
  10         4           6      0.000037    0.000012
  11         5           5      0.000020    0.000007
  12         6           4      0.000013    0.000003
  13         9           1      0.000008    0.000002
  14        10           0      0.000007    0.000001    Roots Converged
 ---------------------------------------------------
 
 ---------------------------------------------------
             TDDFT Excitation Energies              
 ---------------------------------------------------

 Excited state   1: excitation energy (eV) =    3.0336
 Total energy for state  1:                  -986.54647322 au
    Multiplicity: Singlet 
    Trans. Mom.:  1.1038 X  -0.2641 Y   0.0963 Z
    Strength   :     0.0964334594
    X: D(   90) --> V(    1) amplitude =  0.9625
    X: D(   90) --> V(    3) amplitude = -0.2443

 Excited state   2: excitation energy (eV) =    3.9855
 Total energy for state  2:                  -986.51149220 au
    Multiplicity: Singlet 
    Trans. Mom.: -3.1799 X   0.8500 Y  -0.3596 Z
    Strength   :     1.0705476396
    X: D(   89) --> V(    1) amplitude =  0.9688

 Excited state   3: excitation energy (eV) =    4.1855
 Total energy for state  3:                  -986.50414388 au
    Multiplicity: Singlet 
    Trans. Mom.: -0.4416 X   0.2710 Y  -0.0877 Z
    Strength   :     0.0283112308
    X: D(   90) --> V(    2) amplitude =  0.8109
    X: D(   90) --> V(    4) amplitude = -0.4129
    X: D(   90) --> V(    5) amplitude = -0.2896

 Excited state   4: excitation energy (eV) =    4.6856
 Total energy for state  4:                  -986.48576545 au
    Multiplicity: Singlet 
    Trans. Mom.: -0.0746 X   0.0584 Y   0.0447 Z
    Strength   :     0.0012594433
    X: D(   85) --> V(    1) amplitude = -0.4823
    X: D(   86) --> V(    1) amplitude = -0.2559
    X: D(   89) --> V(    2) amplitude =  0.5496
    X: D(   89) --> V(    5) amplitude =  0.2420
    X: D(   90) --> V(    5) amplitude = -0.4399

 Excited state   5: excitation energy (eV) =    4.9295
 Total energy for state  5:                  -986.47680084 au
    Multiplicity: Singlet 
    Trans. Mom.: -0.0673 X   0.0514 Y  -0.1198 Z
    Strength   :     0.0025997640
    X: D(   87) --> V(    1) amplitude =  0.4936
    X: D(   88) --> V(    1) amplitude =  0.2765
    X: D(   89) --> V(    2) amplitude =  0.3540
    X: D(   90) --> V(    2) amplitude =  0.3928
    X: D(   90) --> V(    5) amplitude =  0.3667

 Excited state   6: excitation energy (eV) =    5.1272
 Total energy for state  6:                  -986.46953474 au
    Multiplicity: Singlet 
    Trans. Mom.: -0.0051 X  -0.0412 Y   0.1187 Z
    Strength   :     0.0019857273
    X: D(   85) --> V(    1) amplitude = -0.3701
    X: D(   86) --> V(    1) amplitude =  0.4249
    X: D(   86) --> V(    3) amplitude =  0.3645
    X: D(   88) --> V(    4) amplitude =  0.3052
    X: D(   89) --> V(    4) amplitude = -0.4544

 Excited state   7: excitation energy (eV) =    5.1616
 Total energy for state  7:                  -986.46827257 au
    Multiplicity: Singlet 
    Trans. Mom.:  0.0071 X  -0.2882 Y   0.2860 Z
    Strength   :     0.0208582295
    X: D(   85) --> V(    1) amplitude = -0.2437
    X: D(   90) --> V(    3) amplitude =  0.5860
    X: D(   90) --> V(    5) amplitude =  0.4978
    X: D(   90) --> V(    6) amplitude =  0.2789

 Excited state   8: excitation energy (eV) =    5.1941
 Total energy for state  8:                  -986.46707879 au
    Multiplicity: Singlet 
    Trans. Mom.:  0.1216 X   0.1632 Y  -0.3319 Z
    Strength   :     0.0192907517
    X: D(   85) --> V(    1) amplitude =  0.3740
    X: D(   88) --> V(    1) amplitude =  0.2163
    X: D(   89) --> V(    5) amplitude = -0.2485
    X: D(   90) --> V(    3) amplitude =  0.5302
    X: D(   90) --> V(    5) amplitude = -0.3857
    X: D(   90) --> V(    6) amplitude =  0.2553

 Excited state   9: excitation energy (eV) =    5.4117
 Total energy for state  9:                  -986.45907962 au
    Multiplicity: Singlet 
    Trans. Mom.:  0.4630 X  -0.3462 Y  -0.0114 Z
    Strength   :     0.0443318028
    X: D(   87) --> V(    1) amplitude = -0.4019
    X: D(   88) --> V(    1) amplitude =  0.6022
    X: D(   89) --> V(    3) amplitude = -0.4991
    X: D(   90) --> V(    3) amplitude = -0.2705
    X: D(   90) --> V(    6) amplitude = -0.2228

 Excited state  10: excitation energy (eV) =    5.5479
 Total energy for state 10:                  -986.45407443 au
    Multiplicity: Singlet 
    Trans. Mom.: -0.0761 X  -0.2229 Y  -0.1461 Z
    Strength   :     0.0104397803
    X: D(   85) --> V(    1) amplitude =  0.3001
    X: D(   86) --> V(    1) amplitude =  0.2472
    X: D(   87) --> V(    1) amplitude = -0.4682
    X: D(   88) --> V(    1) amplitude = -0.3511
    X: D(   89) --> V(    2) amplitude =  0.6403
 
 ---------------------------------------------------
 Calculating Relaxed Density
 ---------------------------------------------------
 Iter    Rts Conv    Rts Left    Ttl Dev     Max Dev
 ---------------------------------------------------
   1         0          10      0.000985    0.000189
   2         0          10      0.000294    0.000056
   3         0          10      0.000083    0.000016
   4         1           9      0.000024    0.000005
   5         6           4      0.000005    0.000001
   6        10           0      0.000000    0.000000    Roots Converged
 ---------------------------------------------------
  SETman timing summary (seconds)
  CPU time             18889.07s
  System time              0.01s
  Wall time             1495.53s
 
 --------------------------------------------------------------
 
                    Orbital Energies (a.u.)
 --------------------------------------------------------------
 
 Alpha MOs
 -- Occupied --
-14.3816 -10.3070 -10.3060 -10.3057 -10.3043 -10.2931 -10.2925 -10.2919
-10.2910 -10.2909 -10.2904 -10.2903 -10.2903 -10.2900 -10.2899 -10.2897
-10.2895 -10.2889 -10.2877 -10.2876 -10.2841 -10.2821 -10.2621 -10.2553
-10.2502  -1.0019  -0.9807  -0.9660  -0.9485  -0.8962  -0.8596  -0.8557
 -0.8529  -0.8495  -0.8455  -0.8447  -0.8084  -0.7947  -0.7413  -0.7241
 -0.7201  -0.7063  -0.7004  -0.6960  -0.6737  -0.6700  -0.6328  -0.6327
 -0.6131  -0.5770  -0.5733  -0.5689  -0.5665  -0.5456  -0.5432  -0.5374
 -0.5367  -0.5226  -0.5186  -0.5124  -0.5106  -0.5087  -0.5011  -0.4986
 -0.4945  -0.4828  -0.4781  -0.4708  -0.4657  -0.4601  -0.4584  -0.4484
 -0.4432  -0.4412  -0.4377  -0.4329  -0.4287  -0.4236  -0.4219  -0.4133
 -0.4075  -0.4014  -0.3960  -0.3750  -0.3383  -0.3356  -0.3335  -0.3330
 -0.2797  -0.2380
 -- Virtual --
 -0.0052   0.0453   0.0561   0.0580   0.0719   0.1090   0.1148   0.1259
  0.1310   0.1320   0.1386   0.1500   0.1605   0.1623   0.1641   0.1688
  0.1754   0.1859   0.1867   0.1890   0.1960   0.1989   0.2020   0.2052
  0.2156   0.2204   0.2253   0.2352   0.2388   0.2423   0.2449   0.2523
  0.2604   0.2620   0.2628   0.2684   0.2697   0.2770   0.2865   0.2938
  0.3023   0.3131   0.3153   0.3169   0.3224   0.3260   0.3338   0.3465
  0.3518   0.3550   0.3596   0.3625   0.3687   0.3719   0.3832   0.3895
  0.3916   0.3964   0.4010   0.4047   0.4095   0.4158   0.4221   0.4250
  0.4306   0.4349   0.4436   0.4614   0.4623   0.4663   0.4690   0.4732
  0.4744   0.4825   0.4914   0.4940   0.4968   0.4983   0.5076   0.5104
  0.5168   0.5204   0.5232   0.5264   0.5298   0.5307   0.5323   0.5390
  0.5473   0.5486   0.5545   0.5610   0.5699   0.5812   0.5861   0.5970
  0.5987   0.6057   0.6113   0.6230   0.6242   0.6286   0.6341   0.6406
  0.6435   0.6507   0.6513   0.6622   0.6632   0.6671   0.6722   0.6776
  0.6799   0.6829   0.6859   0.6868   0.6882   0.6898   0.6952   0.7018
  0.7060   0.7072   0.7110   0.7140   0.7144   0.7170   0.7220   0.7239
  0.7286   0.7325   0.7371   0.7385   0.7418   0.7445   0.7505   0.7601
  0.7695   0.7734   0.7759   0.7895   0.7905   0.8008   0.8110   0.8154
  0.8211   0.8251   0.8312   0.8382   0.8401   0.8488   0.8548   0.8582
  0.8670   0.8777   0.8838   0.8899   0.8992   0.9065   0.9140   0.9185
  0.9203   0.9265   0.9313   0.9400   0.9442   0.9466   0.9619   0.9681
  0.9760   0.9829   0.9926   1.0080   1.0137   1.0280   1.0349   1.0405
  1.0466   1.0524   1.0678   1.0740   1.0853   1.0905   1.0939   1.0974
  1.1127   1.1220   1.1294   1.1407   1.1481   1.1555   1.1624   1.1634
  1.1753   1.1810   1.1901   1.1910   1.2072   1.2122   1.2246   1.2309
  1.2373   1.2402   1.2441   1.2521   1.2614   1.2800   1.2979   1.3212
  1.3316   1.3373   1.3491   1.3568   1.3644   1.3764   1.3922   1.3964
  1.4201   1.4413   1.4675   1.4816   1.4971   1.5035   1.5111   1.5176
  1.5274   1.5353   1.5378   1.5401   1.5415   1.5476   1.5507   1.5512
  1.5637   1.5663   1.5743   1.5783   1.5856   1.5908   1.5995   1.6081
  1.6159   1.6217   1.6258   1.6350   1.6396   1.6423   1.6479   1.6525
  1.6587   1.6629   1.6662   1.6712   1.6777   1.6811   1.6850   1.6905
  1.7016   1.7069   1.7110   1.7160   1.7196   1.7278   1.7352   1.7408
  1.7464   1.7536   1.7579   1.7665   1.7707   1.7716   1.7814   1.7932
  1.8013   1.8136   1.8201   1.8257   1.8371   1.8396   1.8437   1.8450
  1.8506   1.8561   1.8610   1.8614   1.8712   1.8744   1.8773   1.8873
  1.8911   1.8965   1.9064   1.9147   1.9263   1.9375   1.9439   1.9499
  1.9587   1.9651   1.9751   1.9798   1.9816   1.9884   1.9944   2.0055
  2.0079   2.0142   2.0164   2.0248   2.0319   2.0346   2.0442   2.0452
  2.0580   2.0613   2.0630   2.0750   2.0782   2.0891   2.0952   2.0987
  2.1070   2.1205   2.1244   2.1302   2.1331   2.1553   2.1609   2.1705
  2.1721   2.1750   2.1791   2.1944   2.2063   2.2130   2.2231   2.2395
  2.2659   2.2714   2.2820   2.2886   2.3022   2.3173   2.3446   2.3623
  2.3706   2.3765   2.3791   2.3861   2.3982   2.4038   2.4150   2.4177
  2.4284   2.4322   2.4404   2.4414   2.4589   2.4680   2.4702   2.4785
  2.4838   2.4953   2.5029   2.5090   2.5111   2.5172   2.5185   2.5290
  2.5393   2.5512   2.5622   2.5756   2.5879   2.5955   2.6174   2.6303
  2.6404   2.6535   2.6579   2.6621   2.6625   2.6721   2.6756   2.6785
  2.6913   2.6947   2.7006   2.7063   2.7095   2.7164   2.7225   2.7284
  2.7307   2.7370   2.7469   2.7521   2.7546   2.7643   2.7689   2.7722
  2.7747   2.7811   2.7879   2.7888   2.7903   2.8011   2.8017   2.8172
  2.8210   2.8228   2.8272   2.8369   2.8382   2.8457   2.8609   2.8706
  2.8734   2.8840   2.8895   2.9002   2.9123   2.9146   2.9247   2.9371
  2.9443   2.9494   2.9558   2.9581   2.9845   2.9848   2.9917   3.0025
  3.0121   3.0124   3.0216   3.0277   3.0410   3.0437   3.0567   3.0583
  3.0936   3.0957   3.1074   3.1270   3.1455   3.1659   3.1941   3.2074
  3.2269   3.2467   3.2808   3.3149   3.3284   3.3361   3.3535   3.3554
  3.4061   3.4415   3.4429   3.4599   3.5050   3.5138   3.5419   3.5748
  3.5854   3.5977   3.6166   3.6403   3.6559   3.6794   3.6926   3.7022
  3.7104   3.7441   3.7643   3.8091   3.8861   3.8988   3.9105   3.9150
  3.9253   3.9328   3.9456   3.9600   3.9769   3.9863   4.0211   4.0626
  4.0740   4.1082   4.1291   4.1455   4.1858   4.2264   4.2296   4.2337
  4.2648   4.2818   4.3077   4.3192   4.3397   4.4312   4.5459   4.7475
  4.8791   4.9211   4.9539   5.0612   5.1328  23.6031  23.7435  23.8632
 23.9850  24.0110  24.0207  24.0337  24.0475  24.0512  24.0609  24.0658
 24.0834  24.1042  24.1072  24.1216  24.1372  24.1555  24.1959  24.2424
 24.2606  24.2705  24.3153  24.3209  24.3312  35.7311
 --------------------------------------------------------------
 
          Ground-State Mulliken Net Atomic Charges

     Atom                 Charge (a.u.)
  ----------------------------------------
      1 C                    -0.307341
      2 C                    -0.118832
      3 N                    -0.410286
      4 H                     0.107350
      5 H                     0.110154
      6 H                     0.136565
      7 H                     0.103590
      8 C                    -0.054457
      9 H                     0.091654
     10 H                     0.125934
     11 H                     0.115727
     12 C                    -0.370455
     13 H                     0.110403
     14 H                     0.122507
     15 H                     0.122984
     16 C                    -0.144016
     17 H                     0.112729
     18 H                     0.114558
     19 C                    -0.299634
     20 H                     0.105213
     21 H                     0.112497
     22 H                     0.112865
     23 C                    -0.018507
     24 C                    -0.077886
     25 H                     0.116247
     26 C                    -0.114968
     27 H                     0.124594
     28 C                    -0.142867
     29 H                     0.122598
     30 C                    -0.112419
     31 H                     0.119552
     32 C                    -0.119040
     33 H                     0.126452
     34 C                    -0.053355
     35 C                    -0.115854
     36 H                     0.123002
     37 C                    -0.102055
     38 H                     0.122388
     39 C                    -0.016069
     40 C                    -0.110716
     41 H                     0.120033
     42 C                    -0.119823
     43 H                     0.122735
     44 C                    -0.045866
     45 C                    -0.102834
     46 H                     0.123586
     47 C                    -0.121681
     48 H                     0.122581
     49 C                    -0.114825
     50 H                     0.123807
     51 C                    -0.121708
     52 H                     0.122683
     53 C                    -0.103727
     54 H                     0.124233
  ----------------------------------------
  Sum of atomic charges =     0.000000

 -----------------------------------------------------------------
                    Cartesian Multipole Moments
 -----------------------------------------------------------------
    Charge (ESU x 10^10)
                -0.0000
    Dipole Moment (Debye)
         X      -0.1614      Y      -0.1530      Z      -0.0052
       Tot       0.2224
    Quadrupole Moments (Debye-Ang)
        XX    -138.0264     XY      -5.7592     YY    -158.6998
        XZ      -2.1500     YZ     -10.6488     ZZ    -142.3991
    Octopole Moments (Debye-Ang^2)
       XXX    -925.0809    XXY    -256.6015    XYY    -367.9851
       YYY    -808.9392    XXZ     -49.3045    XYZ     -14.4230
       YYZ     -84.8514    XZZ    -297.8355    YZZ    -256.5286
       ZZZ    -167.2320
    Hexadecapole Moments (Debye-Ang^3)
      XXXX  -13635.4289   XXXY   -1596.2759   XXYY   -3453.6379
      XYYY   -1496.8147   YYYY   -5620.6531   XXXZ   -1003.1609
      XXYZ    -224.9680   XYYZ    -293.3646   YYYZ    -340.4720
      XXZZ   -2589.8938   XYZZ    -458.2701   YYZZ   -1134.6696
      XZZZ    -969.4924   YZZZ    -256.0474   ZZZZ   -1542.8969
 -----------------------------------------------------------------
 Calculating analytic gradient of the CIS energy
 RPA relaxed dipole moment
            1
    1   2.8207607
    2   3.5827154
    3   1.1145536
	Magnitude:	 4.694 au	11.931 Debye
 RPA 1 State Energy is -986.5464732241
 Gradient of the state energy (including RPA Excitation Energy)
            1           2           3           4           5           6
    1   0.0001982   0.0007877   0.0003391   0.0016526   0.0019362  -0.0004094
    2  -0.0049349   0.0011449  -0.0006615   0.0013806   0.0032636  -0.0006149
    3  -0.0010072   0.0014827  -0.0002270   0.0045884  -0.0034797   0.0012429
            7           8           9          10          11          12
    1  -0.0022800  -0.0049969   0.0033223   0.0008437  -0.0000033   0.0009255
    2  -0.0001823  -0.0020634   0.0038873  -0.0011120  -0.0001010  -0.0019894
    3  -0.0000881  -0.0012673   0.0007773  -0.0005699  -0.0023790  -0.0032514
           13          14          15          16          17          18
    1  -0.0012476   0.0022391  -0.0020794  -0.0011210   0.0034338  -0.0026238
    2  -0.0010706  -0.0007946   0.0037926   0.0021065  -0.0023705   0.0006621
    3  -0.0003950   0.0027309   0.0009711   0.0051803  -0.0003243  -0.0047960
           19          20          21          22          23          24
    1  -0.0029635   0.0028570  -0.0043852   0.0035694   0.0006897   0.0000792
    2  -0.0059274   0.0013101   0.0039484  -0.0002870  -0.0000826  -0.0006032
    3  -0.0008242  -0.0043418   0.0007810   0.0049852   0.0008837   0.0014135
           25          26          27          28          29          30
    1   0.0000569  -0.0012742   0.0005159  -0.0007571  -0.0001780  -0.0006378
    2   0.0004075  -0.0003426   0.0004338  -0.0006109   0.0000933   0.0007025
    3  -0.0003173   0.0012241  -0.0005986   0.0002100  -0.0000550  -0.0007192
           31          32          33          34          35          36
    1  -0.0001386   0.0000379   0.0008289  -0.0016708  -0.0010200  -0.0005805
    2   0.0003286  -0.0003520   0.0006061   0.0010424  -0.0003597   0.0002157
    3  -0.0003787  -0.0004096  -0.0007184  -0.0005807   0.0001768   0.0011611
           37          38          39          40          41          42
    1  -0.0002321   0.0007742   0.0017049   0.0004985   0.0012432  -0.0009896
    2  -0.0009664  -0.0005802  -0.0005162   0.0004893   0.0000654   0.0007547
    3   0.0003019   0.0017701   0.0001757  -0.0005135  -0.0015546  -0.0005919
           43          44          45          46          47          48
    1  -0.0000865  -0.0023321  -0.0000928  -0.0004761   0.0014341   0.0011230
    2   0.0004975   0.0007649  -0.0002316   0.0018525   0.0002187   0.0005954
    3  -0.0008749   0.0001681  -0.0008686  -0.0015032  -0.0007529  -0.0008938
           49          50          51          52          53          54
    1   0.0012149   0.0012586   0.0004700   0.0002275  -0.0006678  -0.0010178
    2  -0.0005887  -0.0005120  -0.0013368  -0.0007975  -0.0001930  -0.0003815
    3   0.0001775   0.0000788   0.0010572   0.0007071   0.0012692   0.0007672
 PCM gradient for the ground-state
 Computing fast CPCM-SWIG gradient
 Updating gradient with PCM contributions...
 -- total gradient after adding PCM contribution --
---------------------------------------------------
  Atom         X              Y              Z     
---------------------------------------------------
   1       0.001143      -0.005311      -0.001324
   2       0.001309       0.001252       0.001303
   3       0.000276      -0.000722      -0.000411
   4       0.001830       0.001609       0.005044
   5       0.001916       0.003459      -0.003616
   6      -0.000808      -0.000806       0.001481
   7      -0.003202      -0.000274      -0.000107
   8      -0.005526      -0.001841      -0.001311
   9       0.003485       0.004112       0.000815
  10       0.001180      -0.001437      -0.000653
  11      -0.000206      -0.000080      -0.002405
  12       0.000696      -0.002565      -0.003043
  13      -0.000946      -0.000657      -0.000352
  14       0.002120      -0.000701       0.002519
  15      -0.002062       0.003798       0.000949
  16      -0.001331       0.001996       0.004430
  17       0.003327      -0.002277      -0.000231
  18      -0.002281       0.000647      -0.004195
  19      -0.002906      -0.006218      -0.001054
  20       0.002812       0.001338      -0.004216
  21      -0.004553       0.004152       0.000934
  22       0.003657      -0.000235       0.005119
  23       0.000535       0.000029       0.000744
  24      -0.000276       0.000185      -0.000414
  25       0.000433      -0.000168       0.001110
  26      -0.000215       0.000192      -0.000092
  27      -0.000348       0.000046       0.000372
  28       0.001010      -0.000762       0.000418
  29      -0.001420       0.000275      -0.000236
  30      -0.000192      -0.000137       0.000769
  31      -0.000506       0.000913      -0.001407
  32      -0.001112      -0.001068       0.001163
  33       0.001755       0.001128      -0.001862
  34      -0.001375       0.000857      -0.000421
  35       0.000014      -0.000111      -0.001807
  36      -0.001386       0.000110       0.002508
  37      -0.000210      -0.000172      -0.001630
  38       0.000936      -0.000995       0.002833
  39       0.001237      -0.000360       0.000100
  40      -0.000271      -0.000093       0.001447
  41       0.001821       0.000275      -0.002595
  42      -0.000517      -0.000146       0.001615
  43      -0.000511       0.001159      -0.002478
  44      -0.001591       0.000443       0.000194
  45      -0.000028      -0.001555       0.000724
  46      -0.000521       0.002533      -0.002233
  47      -0.000145      -0.000519       0.000504
  48       0.001953       0.000998      -0.001577
  49      -0.000714       0.000230       0.000043
  50       0.002327      -0.000970       0.000152
  51       0.000060       0.000242      -0.000325
  52       0.000429      -0.001624       0.001450
  53       0.000478       0.000571      -0.000185
  54      -0.001580      -0.000746       0.001439
---------------------------------------------------
 Number of fixed atoms: 0
Adjusting gradient with QM/MM Energy...State: 1
QM/MM CIS energy: -986.657957
 Computing fast CPCM-SWIG gradient for CIS density
 Updating gradient with PCM contributions...
 -- total gradient after adding PCM contribution --
---------------------------------------------------
  Atom         X              Y              Z     
---------------------------------------------------
   1       0.000009       0.000015       0.000023
   2      -0.000029      -0.000032       0.000051
   3       0.000031       0.000020      -0.000008
   4       0.000006      -0.000010       0.000012
   5       0.000011      -0.000004      -0.000007
   6      -0.000010      -0.000002      -0.000048
   7       0.000002      -0.000001      -0.000002
   8       0.000064       0.000076      -0.000027
   9       0.000005      -0.000020       0.000022
  10      -0.000131      -0.000080       0.000034
  11      -0.000017      -0.000025      -0.000029
  12       0.000064      -0.000077       0.000063
  13      -0.000128       0.000043      -0.000079
  14      -0.000001       0.000010       0.000009
  15      -0.000012       0.000010      -0.000012
  16      -0.000017      -0.000023      -0.000006
  17      -0.000011      -0.000007       0.000004
  18       0.000009       0.000033      -0.000003
  19       0.000025      -0.000022       0.000017
  20      -0.000016       0.000010      -0.000006
  21      -0.000014      -0.000006       0.000022
  22       0.000014      -0.000000      -0.000017
  23       0.000017       0.000016      -0.000009
  24      -0.000005       0.000031       0.000007
  25       0.000008       0.000010       0.000010
  26       0.000001       0.000003       0.000024
  27       0.000003      -0.000004       0.000000
  28       0.000040       0.000000      -0.000055
  29      -0.000000      -0.000007      -0.000011
  30       0.000011      -0.000004       0.000014
  31       0.000002       0.000005      -0.000001
  32      -0.000001      -0.000026      -0.000010
  33       0.000015       0.000010       0.000008
  34      -0.000045      -0.000058       0.000013
  35      -0.000002       0.000041      -0.000010
  36       0.000000      -0.000002      -0.000009
  37       0.000016       0.000020      -0.000000
  38       0.000005      -0.000002      -0.000003
  39      -0.000036       0.000003      -0.000008
  40       0.000013      -0.000005      -0.000006
  41       0.000007       0.000007       0.000003
  42       0.000020      -0.000003      -0.000003
  43       0.000063       0.000033       0.000037
  44       0.000026      -0.000007       0.000004
  45      -0.000008       0.000016       0.000007
  46      -0.000002      -0.000000      -0.000001
  47       0.000006      -0.000004      -0.000005
  48       0.000002       0.000003       0.000002
  49      -0.000004       0.000008      -0.000002
  50       0.000001       0.000002      -0.000000
  51       0.000009      -0.000001       0.000002
  52       0.000002       0.000005       0.000001
  53      -0.000012       0.000002      -0.000009
  54      -0.000005       0.000003      -0.000004
---------------------------------------------------
 Number of fixed atoms: 0
Adjusting gradient with QM/MM Energy...State: 1
QM/MM CIS energy: -986.657957
 Gradient time:  CPU 3138.39 s  wall 392.05 s
 Geometry Optimization Parameters
   NAtoms,    NIC,     NZ,  NCons,   NDum,   NFix, NCnnct, MaxDiis
       54     543       0       0       0       0       0       0


** GEOMETRY OPTIMIZATION IN DELOCALIZED INTERNAL COORDINATES **
   Searching for a Minimum

   Optimization Cycle:   1

                       Coordinates (Angstroms)
     ATOM                X               Y               Z
      1  C         2.6312270555    4.5860938404    0.9929620262
      2  C         3.1115578424    3.1599210812    0.6913211040
      3  N         4.5319426774    2.9937922819    0.8456010150
      4  H         2.9476454837    4.9110966187    1.9861268961
      5  H         2.9947980867    5.2999718216    0.2527920001
      6  H         2.6022235583    2.4490057282    1.3345778152
      7  H         1.5417617905    4.5821872138    0.9578749899
      8  C         5.1451131746    2.5182563151    2.0631031793
      9  H         5.8808282025    3.2688680309    2.3702971988
     10  H         5.7307561439    1.6284915650    1.7798873582
     11  H         2.8611816734    2.8941899602   -0.3377467479
     12  C         4.2017778667    2.1953496572    3.2032924318
     13  H         3.5263593970    1.3796952029    2.9453643518
     14  H         4.8019663197    1.8716744893    4.0547785788
     15  H         3.6162678358    3.0647890818    3.5109882633
     16  C         5.4255600954    3.5440992666   -0.1631468041
     17  H         6.2421838392    2.8330517886   -0.2849800909
     18  H         4.8719779445    3.5843652548   -1.1000558952
     19  C         5.9826736212    4.9237997649    0.1985960453
     20  H         6.6042723683    5.2663572870   -0.6295041248
     21  H         5.1912109244    5.6556375301    0.3590673758
     22  H         6.6075354058    4.8845445605    1.0921799119
     23  C         3.7647078540   -0.0664209955    0.2269652169
     24  C         4.7485558576    0.3191199670   -0.7484756426
     25  H         4.4322412949    0.7700383820   -1.6814998955
     26  C         6.0996287020    0.1448417680   -0.5271231929
     27  H         6.8039301874    0.4586675127   -1.2927369588
     28  C         6.5800827102   -0.4111838192    0.6641446172
     29  H         7.6412306613   -0.5559425893    0.8270532656
     30  C         5.6317658332   -0.8841493097    1.5998822144
     31  H         5.9749826557   -1.3877560168    2.4986894291
     32  C         4.2843875295   -0.7240710016    1.3936921528
     33  H         3.5982239537   -1.1272425909    2.1294352614
     34  C         2.3783128148    0.2263471258    0.0634793590
     35  C         1.8385807061    0.7341384577   -1.1623727891
     36  H         2.4403320540    0.7190136259   -2.0637661935
     37  C         0.5500735045    1.2098385853   -1.2521311355
     38  H         0.1958319424    1.5602690093   -2.2169698288
     39  C        -0.3299577617    1.2161407637   -0.1515474401
     40  C         0.1631963186    0.6396643919    1.0402382400
     41  H        -0.4725292876    0.6072264827    1.9197705088
     42  C         1.4453869230    0.1554635817    1.1469295345
     43  H         1.7629166871   -0.2417625090    2.1043077484
     44  C        -1.6826875700    1.7822797717   -0.2445456890
     45  C        -2.7343576057    1.3218403251    0.5660794332
     46  H        -2.5579991335    0.5043679739    1.2562814500
     47  C        -4.0059931969    1.8704272263    0.4822469516
     48  H        -4.7950951905    1.4876172647    1.1208736375
     49  C        -4.2784262980    2.8925429653   -0.4219594243
     50  H        -5.2729300295    3.3187014079   -0.4891624163
     51  C        -3.2528397259    3.3595794305   -1.2374751482
     52  H        -3.4446225393    4.1594669186   -1.9450596846
     53  C        -1.9778859875    2.8194761832   -1.1461282566
     54  H        -1.1893631707    3.2232223703   -1.7715882030
   Point Group: c1    Number of degrees of freedom:   156


   Energy is   -986.657957227


 Attempting to generate delocalized internal coordinates
 Initial Hessian constructed with Jon Baker's OPTIMIZE code

156 Hessian modes will be used to form the next step
  Hessian Eigenvalues:
     0.004316    0.004573    0.005042    0.005377    0.006278    0.008682
     0.010862    0.013231    0.013888    0.017062    0.017731    0.018877
     0.019070    0.019316    0.020543    0.020953    0.021836    0.021969
     0.022260    0.022288    0.022737    0.022945    0.023468    0.023554
     0.023693    0.023698    0.023805    0.023814    0.023849    0.024050
     0.024393    0.025490    0.028123    0.028373    0.029054    0.030636
     0.031877    0.033096    0.033738    0.034969    0.036621    0.037404
     0.038822    0.039723    0.041669    0.043629    0.044358    0.048052
     0.049748    0.051325    0.052126    0.054493    0.054752    0.056516
     0.059034    0.059447    0.060287    0.061707    0.067176    0.070209
     0.073191    0.076949    0.078262    0.080855    0.084885    0.086920
     0.093609    0.099664    0.104902    0.107767    0.108249    0.111548
     0.119620    0.123018    0.128517    0.132052    0.142748    0.158613
     0.159857    0.159885    0.159949    0.159964    0.159985    0.159988
     0.159993    0.160000    0.160000    0.160000    0.160000    0.160000
     0.160000    0.160000    0.164104    0.165488    0.184948    0.218746
     0.219997    0.220004    0.234603    0.236678    0.249991    0.249994
     0.255185    0.270411    0.282497    0.289827    0.293059    0.293123
     0.298917    0.309189    0.313117    0.320621    0.323474    0.327911
     0.337971    0.342392    0.345320    0.346004    0.346866    0.347110
     0.347302    0.347396    0.348083    0.348312    0.348329    0.349310
     0.352857    0.352895    0.353126    0.353941    0.354054    0.354648
     0.354778    0.355094    0.355270    0.355778    0.355991    0.358161
     0.360361    0.364101    0.370834    0.384858    0.391847    0.414340
     0.417073    0.420617    0.421409    0.421734    0.451590    0.455437
     0.461705    0.467530    0.472495    0.476274    0.477474    0.499255

 Minimum search - taking simple RFO step
 Searching for Lamda that Minimizes Along All modes
 Value Taken    Lamda =  -0.00000117
 Step Taken.  Stepsize is  0.011597

                             Maximum     Tolerance    Cnvgd?
         Gradient           0.000050      0.000020      NO
         Displacement       0.004841      0.001200      NO
         Energy change     *********      0.000001      NO


 New Cartesian Coordinates Obtained by Inverse Iteration

 Displacement from previous Coordinates is:  0.021798
 ----------------------------------------------------------------
             Standard Nuclear Orientation (Angstroms)
    I     Atom           X                Y                Z
 ----------------------------------------------------------------
    1      C       2.6308632628     4.5862073783     0.9933810933
    2      C       3.1115578987     3.1601302745     0.6918457355
    3      N       4.5319829405     2.9940225572     0.8457225650
    4      H       2.9475856005     4.9116257297     1.9863012849
    5      H       2.9937306927     5.3001123880     0.2529097861
    6      H       2.6023945942     2.4491319924     1.3352501124
    7      H       1.5413796312     4.5818618177     0.9588473803
    8      C       5.1457087673     2.5185648504     2.0629812891
    9      H       5.8813582936     3.2694426213     2.3696956709
   10      H       5.7314913717     1.6289201307     1.7796508064
   11      H       2.8610831570     2.8944200863    -0.3371467851
   12      C       4.2030229093     2.1954115589     3.2036119636
   13      H       3.5274649138     1.3798406532     2.9458633178
   14      H       4.8037377382     1.8713338415     4.0545682718
   15      H       3.6177768002     3.0647336874     3.5120668988
   16      C       5.4253557954     3.5438761216    -0.1635180265
   17      H       6.2420457366     2.8328291004    -0.2850088553
   18      H       4.8716849104     3.5831313224    -1.1004154198
   19      C       5.9822395418     4.9239776017     0.1971395889
   20      H       6.6059007640     5.2648342049    -0.6301091010
   21      H       5.1908331295     5.6565026381     0.3546222600
   22      H       6.6050639305     4.8858827146     1.0922118282
   23      C       3.7646061951    -0.0664654905     0.2273773696
   24      C       4.7484010904     0.3186110319    -0.7483126330
   25      H       4.4319907038     0.7691784860    -1.6814879166
   26      C       6.0995010178     0.1444482983    -0.5269798614
   27      H       6.8037582150     0.4581805637    -1.2926736855
   28      C       6.5800393443    -0.4113188060     0.6643922255
   29      H       7.6411864149    -0.5561452322     0.8272484207
   30      C       5.6317641928    -0.8840824638     1.6002205694
   31      H       5.9749951681    -1.3876415055     2.4990506768
   32      C       4.2843862843    -0.7239048460     1.3941639351
   33      H       3.5982396808    -1.1269352228     2.1299902327
   34      C       2.3782408872     0.2264610198     0.0638953518
   35      C       1.8386098207     0.7342443738    -1.1619758946
   36      H       2.4404730034     0.7192004735    -2.0632847182
   37      C       0.5501203961     1.2099908865    -1.2518627495
   38      H       0.1959945460     1.5605601485    -2.2166959107
   39      C      -0.3300551874     1.2162162485    -0.1514157936
   40      C       0.1628371339     0.6394924565     1.0403295673
   41      H      -0.4731325730     0.6067502337     1.9196743722
   42      C       1.4450506821     0.1553697468     1.1471677979
   43      H       1.7623203262    -0.2421081791     2.1045103861
   44      C      -1.6827982119     1.7823430253    -0.2445913780
   45      C      -2.7350235570     1.3205580724     0.5645363269
   46      H      -2.5590946502     0.5020472304     1.2536125338
   47      C      -4.0066657534     1.8691233763     0.4805407415
   48      H      -4.7962506388     1.4852169418     1.1179103120
   49      C      -4.2784994272     2.8925789161    -0.4223261811
   50      H      -5.2729999632     3.3187287479    -0.4896558364
   51      C      -3.2523347243     3.3609890196    -1.2363271056
   52      H      -3.4436639040     4.1619507089    -1.9428173354
   53      C      -1.9773868830     2.8208759960    -1.1448171100
   54      H      -1.1883700093     3.2256934725    -1.7689643749
 ----------------------------------------------------------------
 Nuclear Repulsion Energy =        2143.29691850 hartrees
 There are       90 alpha and       90 beta electrons
 Discretize the solute cavity surface with Lebedev spheres
	Using 110 Lebedev grid points for each H atom
	Using 590 Lebedev grid points for other atoms
	Atomic van der Waals radii will be scaled by 1.20
 Remove points where switching function is < 1.0e-08
 Keep 5848 surface tesserae and discard 12092 interior tesserae
 Molecular Surface Area = 400.079 Angst**2
 Applying Cartesian multipole field
    Component          Value
    ---------          -----
     (2,0,0)        1.00000E-12
     (0,2,0)        2.00000E-12
     (0,0,2)       -3.00000E-11
 Nucleus-field energy     =    -0.0000000131 hartrees
 Requested basis set is 6-311G(d,p)
 There are 241 shells and 624 basis functions
 A cutoff of  1.0D-14 yielded  19222 shell pairs
 There are    129704 function pairs (    139945 Cartesian)
 Smallest overlap matrix eigenvalue = 1.29E-04
 Guess MOs from SCF MO coefficient file

 -----------------------------------------------------------------------
  General SCF calculation program by
  Eric Jon Sundstrom, Paul Horn, Yuezhi Mao, Dmitri Zuev, Alec White,
  David Stuck, Shaama M.S., Shane Yost, Joonho Lee, David Small,
  Daniel Levine, Susi Lehtola, Hugh Burton, Evgeny Epifanovsky,
  Bang C. Huynh
 -----------------------------------------------------------------------
 Exchange:     0.2220 Hartree-Fock + 1.0000 wB97X-D + LR-HF
 Correlation:  1.0000 wB97X-D
 Using SG-2 standard quadrature grid
 Dispersion:   Grimme D
 A restricted SCF calculation will be
 performed using Roothaan-Hall, DIIS
 SCF converges when DIIS error is below 1.0e-08
 ---------------------------------------
  Cycle       Energy         DIIS error
 ---------------------------------------
    1    -986.6512543254      6.89e-05  Roothaan Step
 ---------------------------------------
  Cycle       Energy         DIIS error
 ---------------------------------------
    1    -986.6573916537      8.83e-05  
    2    -986.6577975233      5.97e-05  
    3    -986.6579693951      1.16e-05  
    4    -986.6579746984      7.19e-06  
    5    -986.6579773792      1.28e-06  
    6    -986.6579774705      6.72e-07  
    7    -986.6579774933      1.94e-07  
    8    -986.6579774954      5.11e-08  
    9    -986.6579774956      1.73e-08  
   10    -986.6579774956      5.92e-09  Convergence criterion met
 ---------------------------------------
 SCF time:   CPU 3746.49s  wall 255.00s 

************** Final PCM Free Energy Summary **************
 G_electrostatic  =      -0.00671601 hartree =      -4.21435734 kcal/mol
 G_cavitation     =       0.00000000 hartree =       0.00000000 kcal/mol
 G_dispersion     =       0.00000000 hartree =       0.00000000 kcal/mol
 G_repulsion      =       0.00000000 hartree =       0.00000000 kcal/mol
 --------------------------------------------------
 Non-electrostatic Free Energy =       0.00000000 hartree =       0.00000000 kcal/mol
 Total                         =      -0.00671601 hartree =      -4.21435734 kcal/mol
 --------------------------------------------------
 SCF Energy (H0 + V/2)                       =    -986.65797750 
 Solute Internal Energy (H0)                 =    -986.65126149 
 Total Free Energy (H0 + V/2 + non-elec)     =    -986.65797750 hartree
                                             = -619137.22551619 kcal/mol
***********************************************************

 SCF   energy in the final basis set =     -986.6579774956
 Total energy in the final basis set =     -986.6579774956
 
 MAX_CIS_SUBSPACE fits in available memory
 Adding PCM contribution to the XC response (LR-PCM)
 CIS energy converged when residual is below 10e- 6

 Direct TDDFT calculation will be performed
 Exchange:     0.2220 Hartree-Fock + 1.0000 wB97X-D + LR-HF
 Correlation:  1.0000 wB97X-D
 Using SG-2 standard quadrature grid
 Dispersion:   Grimme D
 ---------------------------------------------------
 Iter    Rts Conv    Rts Left    Ttl Dev     Max Dev
 ---------------------------------------------------
   1         0          10      0.004365    0.000715
   2         0          10      0.001590    0.000248
   3         0          10      0.001484    0.000266
   4         0          10      0.000959    0.000176
   5         0          10      0.000654    0.000138
   6         0          10      0.000381    0.000079
   7         0          10      0.000199    0.000048
   8         0          10      0.000132    0.000041
   9         2           8      0.000051    0.000013
  10         4           6      0.000037    0.000012
  11         5           5      0.000020    0.000007
  12         6           4      0.000013    0.000003
  13         9           1      0.000008    0.000002
  14        10           0      0.000007    0.000001    Roots Converged
 ---------------------------------------------------
 
 ---------------------------------------------------
             TDDFT Excitation Energies              
 ---------------------------------------------------

 Excited state   1: excitation energy (eV) =    3.0342
 Total energy for state  1:                  -986.54647404 au
    Multiplicity: Singlet 
    Trans. Mom.:  1.1035 X  -0.2642 Y   0.0963 Z
    Strength   :     0.0964054467
    X: D(   90) --> V(    1) amplitude =  0.9625
    X: D(   90) --> V(    3) amplitude = -0.2441

 Excited state   2: excitation energy (eV) =    3.9861
 Total energy for state  2:                  -986.51149276 au
    Multiplicity: Singlet 
    Trans. Mom.: -3.1795 X   0.8497 Y  -0.3597 Z
    Strength   :     1.0703527508
    X: D(   89) --> V(    1) amplitude =  0.9688

 Excited state   3: excitation energy (eV) =    4.1859
 Total energy for state  3:                  -986.50414896 au
    Multiplicity: Singlet 
    Trans. Mom.: -0.4410 X   0.2706 Y  -0.0877 Z
    Strength   :     0.0282390085
    X: D(   90) --> V(    2) amplitude =  0.8115
    X: D(   90) --> V(    4) amplitude = -0.4114
    X: D(   90) --> V(    5) amplitude = -0.2900

 Excited state   4: excitation energy (eV) =    4.6861
 Total energy for state  4:                  -986.48576740 au
    Multiplicity: Singlet 
    Trans. Mom.: -0.0746 X   0.0582 Y   0.0448 Z
    Strength   :     0.0012584577
    X: D(   85) --> V(    1) amplitude = -0.4832
    X: D(   86) --> V(    1) amplitude = -0.2548
    X: D(   89) --> V(    2) amplitude =  0.5495
    X: D(   89) --> V(    5) amplitude =  0.2422
    X: D(   90) --> V(    5) amplitude = -0.4400

 Excited state   5: excitation energy (eV) =    4.9297
 Total energy for state  5:                  -986.47681430 au
    Multiplicity: Singlet 
    Trans. Mom.: -0.0672 X   0.0518 Y  -0.1204 Z
    Strength   :     0.0026190285
    X: D(   87) --> V(    1) amplitude =  0.4937
    X: D(   88) --> V(    1) amplitude =  0.2771
    X: D(   89) --> V(    2) amplitude =  0.3539
    X: D(   90) --> V(    2) amplitude =  0.3925
    X: D(   90) --> V(    5) amplitude =  0.3664

 Excited state   6: excitation energy (eV) =    5.1277
 Total energy for state  6:                  -986.46953910 au
    Multiplicity: Singlet 
    Trans. Mom.: -0.0050 X  -0.0414 Y   0.1187 Z
    Strength   :     0.0019873129
    X: D(   85) --> V(    1) amplitude = -0.3690
    X: D(   86) --> V(    1) amplitude =  0.4255
    X: D(   86) --> V(    3) amplitude =  0.3653
    X: D(   88) --> V(    4) amplitude =  0.3057
    X: D(   89) --> V(    4) amplitude = -0.4546

 Excited state   7: excitation energy (eV) =    5.1624
 Total energy for state  7:                  -986.46826358 au
    Multiplicity: Singlet 
    Trans. Mom.:  0.0072 X  -0.2892 Y   0.2878 Z
    Strength   :     0.0210623124
    X: D(   85) --> V(    1) amplitude = -0.2461
    X: D(   90) --> V(    3) amplitude =  0.5832
    X: D(   90) --> V(    5) amplitude =  0.5002
    X: D(   90) --> V(    6) amplitude =  0.2778

 Excited state   8: excitation energy (eV) =    5.1947
 Total energy for state  8:                  -986.46707746 au
    Multiplicity: Singlet 
    Trans. Mom.:  0.1222 X   0.1613 Y  -0.3305 Z
    Strength   :     0.0191087612
    X: D(   85) --> V(    1) amplitude =  0.3727
    X: D(   88) --> V(    1) amplitude =  0.2171
    X: D(   89) --> V(    5) amplitude = -0.2473
    X: D(   90) --> V(    3) amplitude =  0.5329
    X: D(   90) --> V(    5) amplitude = -0.3845
    X: D(   90) --> V(    6) amplitude =  0.2569

 Excited state   9: excitation energy (eV) =    5.4123
 Total energy for state  9:                  -986.45907746 au
    Multiplicity: Singlet 
    Trans. Mom.:  0.4641 X  -0.3464 Y  -0.0110 Z
    Strength   :     0.0444962173
    X: D(   87) --> V(    1) amplitude = -0.4024
    X: D(   88) --> V(    1) amplitude =  0.6017
    X: D(   89) --> V(    3) amplitude = -0.4988
    X: D(   90) --> V(    3) amplitude = -0.2710
    X: D(   90) --> V(    6) amplitude = -0.2233

 Excited state  10: excitation energy (eV) =    5.5482
 Total energy for state 10:                  -986.45408418 au
    Multiplicity: Singlet 
    Trans. Mom.: -0.0758 X  -0.2223 Y  -0.1463 Z
    Strength   :     0.0104078226
    X: D(   85) --> V(    1) amplitude =  0.3004
    X: D(   86) --> V(    1) amplitude =  0.2462
    X: D(   87) --> V(    1) amplitude = -0.4680
    X: D(   88) --> V(    1) amplitude = -0.3515
    X: D(   89) --> V(    2) amplitude =  0.6406
 
 ---------------------------------------------------
 Calculating Relaxed Density
 ---------------------------------------------------
 Iter    Rts Conv    Rts Left    Ttl Dev     Max Dev
 ---------------------------------------------------
   1         0          10      0.000985    0.000189
   2         0          10      0.000294    0.000056
   3         0          10      0.000083    0.000016
   4         1           9      0.000024    0.000005
   5         6           4      0.000005    0.000001
   6        10           0      0.000000    0.000000    Roots Converged
 ---------------------------------------------------
  SETman timing summary (seconds)
  CPU time             18936.29s
  System time              0.01s
  Wall time             1470.43s
 
 --------------------------------------------------------------
 
                    Orbital Energies (a.u.)
 --------------------------------------------------------------
 
 Alpha MOs
 -- Occupied --
-14.3817 -10.3070 -10.3060 -10.3056 -10.3043 -10.2931 -10.2925 -10.2919
-10.2910 -10.2909 -10.2904 -10.2903 -10.2903 -10.2900 -10.2899 -10.2897
-10.2895 -10.2889 -10.2877 -10.2876 -10.2841 -10.2821 -10.2621 -10.2553
-10.2502  -1.0019  -0.9807  -0.9660  -0.9485  -0.8962  -0.8596  -0.8557
 -0.8529  -0.8495  -0.8455  -0.8447  -0.8085  -0.7947  -0.7413  -0.7241
 -0.7201  -0.7063  -0.7004  -0.6960  -0.6737  -0.6700  -0.6328  -0.6327
 -0.6131  -0.5770  -0.5732  -0.5689  -0.5665  -0.5456  -0.5432  -0.5374
 -0.5367  -0.5226  -0.5185  -0.5124  -0.5106  -0.5087  -0.5011  -0.4986
 -0.4945  -0.4828  -0.4781  -0.4708  -0.4657  -0.4601  -0.4584  -0.4484
 -0.4431  -0.4412  -0.4377  -0.4329  -0.4287  -0.4236  -0.4219  -0.4133
 -0.4075  -0.4014  -0.3960  -0.3749  -0.3383  -0.3356  -0.3335  -0.3330
 -0.2797  -0.2380
 -- Virtual --
 -0.0052   0.0454   0.0561   0.0580   0.0719   0.1090   0.1148   0.1259
  0.1310   0.1320   0.1386   0.1500   0.1605   0.1623   0.1641   0.1688
  0.1754   0.1858   0.1868   0.1890   0.1960   0.1989   0.2020   0.2052
  0.2156   0.2204   0.2253   0.2352   0.2388   0.2424   0.2449   0.2523
  0.2604   0.2620   0.2628   0.2684   0.2698   0.2770   0.2865   0.2937
  0.3022   0.3131   0.3153   0.3169   0.3224   0.3261   0.3338   0.3465
  0.3518   0.3550   0.3596   0.3625   0.3687   0.3719   0.3832   0.3895
  0.3916   0.3964   0.4010   0.4047   0.4095   0.4158   0.4220   0.4250
  0.4306   0.4349   0.4436   0.4614   0.4623   0.4663   0.4690   0.4733
  0.4744   0.4825   0.4914   0.4940   0.4968   0.4983   0.5076   0.5104
  0.5167   0.5204   0.5231   0.5264   0.5298   0.5307   0.5323   0.5390
  0.5473   0.5486   0.5545   0.5610   0.5699   0.5812   0.5861   0.5970
  0.5987   0.6057   0.6113   0.6230   0.6242   0.6286   0.6341   0.6406
  0.6435   0.6507   0.6513   0.6622   0.6632   0.6671   0.6722   0.6776
  0.6799   0.6829   0.6859   0.6868   0.6883   0.6898   0.6952   0.7018
  0.7060   0.7072   0.7110   0.7140   0.7143   0.7170   0.7220   0.7239
  0.7286   0.7325   0.7371   0.7385   0.7419   0.7445   0.7505   0.7601
  0.7695   0.7734   0.7760   0.7895   0.7905   0.8008   0.8110   0.8153
  0.8211   0.8250   0.8312   0.8381   0.8401   0.8487   0.8547   0.8582
  0.8670   0.8777   0.8838   0.8897   0.8992   0.9065   0.9140   0.9184
  0.9203   0.9265   0.9313   0.9400   0.9441   0.9466   0.9619   0.9681
  0.9760   0.9829   0.9926   1.0080   1.0137   1.0280   1.0348   1.0405
  1.0467   1.0523   1.0678   1.0740   1.0853   1.0904   1.0940   1.0974
  1.1126   1.1220   1.1293   1.1408   1.1481   1.1555   1.1624   1.1633
  1.1753   1.1810   1.1900   1.1909   1.2072   1.2122   1.2246   1.2309
  1.2372   1.2402   1.2441   1.2521   1.2613   1.2800   1.2978   1.3212
  1.3315   1.3373   1.3491   1.3569   1.3643   1.3764   1.3922   1.3965
  1.4202   1.4413   1.4675   1.4816   1.4970   1.5035   1.5111   1.5176
  1.5274   1.5353   1.5379   1.5401   1.5415   1.5477   1.5507   1.5512
  1.5636   1.5663   1.5743   1.5783   1.5856   1.5908   1.5994   1.6081
  1.6159   1.6217   1.6259   1.6349   1.6396   1.6423   1.6479   1.6525
  1.6587   1.6628   1.6662   1.6712   1.6777   1.6810   1.6850   1.6906
  1.7016   1.7069   1.7110   1.7160   1.7197   1.7277   1.7352   1.7408
  1.7464   1.7536   1.7579   1.7665   1.7707   1.7716   1.7814   1.7932
  1.8013   1.8136   1.8201   1.8258   1.8371   1.8396   1.8438   1.8449
  1.8507   1.8561   1.8610   1.8613   1.8712   1.8744   1.8772   1.8873
  1.8910   1.8965   1.9064   1.9147   1.9263   1.9375   1.9439   1.9499
  1.9586   1.9651   1.9751   1.9798   1.9816   1.9883   1.9944   2.0054
  2.0079   2.0142   2.0164   2.0248   2.0319   2.0346   2.0442   2.0451
  2.0579   2.0612   2.0630   2.0751   2.0782   2.0891   2.0951   2.0987
  2.1070   2.1204   2.1244   2.1301   2.1332   2.1553   2.1609   2.1705
  2.1720   2.1749   2.1791   2.1944   2.2063   2.2130   2.2231   2.2395
  2.2656   2.2714   2.2821   2.2885   2.3022   2.3173   2.3446   2.3623
  2.3706   2.3765   2.3791   2.3861   2.3983   2.4038   2.4150   2.4176
  2.4284   2.4322   2.4404   2.4414   2.4589   2.4680   2.4701   2.4784
  2.4838   2.4953   2.5029   2.5090   2.5111   2.5172   2.5185   2.5290
  2.5393   2.5512   2.5621   2.5755   2.5878   2.5955   2.6174   2.6302
  2.6403   2.6535   2.6579   2.6621   2.6625   2.6720   2.6756   2.6785
  2.6913   2.6947   2.7006   2.7063   2.7094   2.7164   2.7225   2.7284
  2.7307   2.7370   2.7469   2.7521   2.7546   2.7642   2.7689   2.7721
  2.7748   2.7811   2.7881   2.7888   2.7903   2.8011   2.8016   2.8172
  2.8209   2.8228   2.8273   2.8369   2.8381   2.8457   2.8609   2.8705
  2.8734   2.8840   2.8894   2.9002   2.9122   2.9147   2.9248   2.9370
  2.9443   2.9494   2.9558   2.9581   2.9844   2.9848   2.9916   3.0025
  3.0121   3.0124   3.0217   3.0277   3.0409   3.0436   3.0567   3.0583
  3.0935   3.0957   3.1074   3.1270   3.1455   3.1659   3.1940   3.2074
  3.2269   3.2467   3.2807   3.3149   3.3284   3.3361   3.3536   3.3554
  3.4061   3.4415   3.4429   3.4599   3.5050   3.5139   3.5418   3.5748
  3.5854   3.5976   3.6166   3.6403   3.6559   3.6794   3.6926   3.7023
  3.7103   3.7441   3.7643   3.8091   3.8860   3.8989   3.9105   3.9153
  3.9253   3.9327   3.9456   3.9601   3.9769   3.9860   4.0211   4.0626
  4.0740   4.1082   4.1291   4.1455   4.1858   4.2264   4.2295   4.2336
  4.2648   4.2818   4.3077   4.3192   4.3397   4.4310   4.5458   4.7475
  4.8791   4.9211   4.9538   5.0611   5.1328  23.6031  23.7435  23.8632
 23.9849  24.0110  24.0206  24.0337  24.0474  24.0512  24.0609  24.0658
 24.0834  24.1043  24.1073  24.1216  24.1372  24.1555  24.1959  24.2424
 24.2606  24.2705  24.3153  24.3209  24.3312  35.7311
 --------------------------------------------------------------
 
          Ground-State Mulliken Net Atomic Charges

     Atom                 Charge (a.u.)
  ----------------------------------------
      1 C                    -0.307327
      2 C                    -0.118788
      3 N                    -0.410302
      4 H                     0.107338
      5 H                     0.110135
      6 H                     0.136529
      7 H                     0.103595
      8 C                    -0.054461
      9 H                     0.091637
     10 H                     0.125924
     11 H                     0.115726
     12 C                    -0.370436
     13 H                     0.110421
     14 H                     0.122501
     15 H                     0.122994
     16 C                    -0.144036
     17 H                     0.112727
     18 H                     0.114526
     19 C                    -0.299528
     20 H                     0.105197
     21 H                     0.112484
     22 H                     0.112842
     23 C                    -0.018440
     24 C                    -0.077924
     25 H                     0.116250
     26 C                    -0.114974
     27 H                     0.124595
     28 C                    -0.142874
     29 H                     0.122598
     30 C                    -0.112371
     31 H                     0.119552
     32 C                    -0.119052
     33 H                     0.126448
     34 C                    -0.053485
     35 C                    -0.115786
     36 H                     0.122988
     37 C                    -0.102076
     38 H                     0.122404
     39 C                    -0.016105
     40 C                    -0.110701
     41 H                     0.120049
     42 C                    -0.119750
     43 H                     0.122716
     44 C                    -0.045881
     45 C                    -0.102861
     46 H                     0.123609
     47 C                    -0.121681
     48 H                     0.122586
     49 C                    -0.114843
     50 H                     0.123810
     51 C                    -0.121712
     52 H                     0.122690
     53 C                    -0.103739
     54 H                     0.124261
  ----------------------------------------
  Sum of atomic charges =     0.000000

 -----------------------------------------------------------------
                    Cartesian Multipole Moments
 -----------------------------------------------------------------
    Charge (ESU x 10^10)
                -0.0000
    Dipole Moment (Debye)
         X      -0.1613      Y      -0.1543      Z      -0.0053
       Tot       0.2233
    Quadrupole Moments (Debye-Ang)
        XX    -138.0201     XY      -5.7587     YY    -158.6912
        XZ      -2.1492     YZ     -10.6497     ZZ    -142.4148
    Octopole Moments (Debye-Ang^2)
       XXX    -925.0708    XXY    -256.6611    XYY    -368.0107
       YYY    -808.8640    XXZ     -49.3204    XYZ     -14.4111
       YYZ     -84.8638    XZZ    -297.7847    YZZ    -256.5751
       ZZZ    -167.2292
    Hexadecapole Moments (Debye-Ang^3)
      XXXX  -13635.3897   XXXY   -1596.2980   XXYY   -3453.8944
      XYYY   -1497.0474   YYYY   -5620.7535   XXXZ   -1003.3288
      XXYZ    -224.9138   XYYZ    -293.3649   YYYZ    -340.3956
      XXZZ   -2590.0650   XYZZ    -458.1999   YYZZ   -1134.8320
      XZZZ    -969.7018   YZZZ    -255.8180   ZZZZ   -1542.7729
 -----------------------------------------------------------------
 Calculating analytic gradient of the CIS energy
 RPA relaxed dipole moment
            1
    1   2.8195803
    2   3.5831258
    3   1.1141187
	Magnitude:	 4.694 au	11.930 Debye
 RPA 1 State Energy is -986.5464740441
 Gradient of the state energy (including RPA Excitation Energy)
            1           2           3           4           5           6
    1   0.0001897   0.0008043   0.0003294   0.0016481   0.0019193  -0.0004318
    2  -0.0049416   0.0011684  -0.0006612   0.0013869   0.0032667  -0.0006322
    3  -0.0010274   0.0014480  -0.0002227   0.0045776  -0.0034721   0.0012644
            7           8           9          10          11          12
    1  -0.0022806  -0.0049920   0.0033151   0.0008530   0.0000174   0.0009146
    2  -0.0001785  -0.0020844   0.0039022  -0.0011126  -0.0000765  -0.0019843
    3  -0.0000836  -0.0012584   0.0007507  -0.0005516  -0.0023509  -0.0032591
           13          14          15          16          17          18
    1  -0.0012392   0.0022371  -0.0020703  -0.0011112   0.0034239  -0.0026229
    2  -0.0010670  -0.0008006   0.0037788   0.0021295  -0.0023862   0.0006298
    3  -0.0003890   0.0027215   0.0009837   0.0051850  -0.0003464  -0.0047899
           19          20          21          22          23          24
    1  -0.0029650   0.0028697  -0.0043680   0.0035522   0.0006914   0.0000673
    2  -0.0059016   0.0013015   0.0039607  -0.0002859  -0.0000942  -0.0006314
    3  -0.0008131  -0.0043333   0.0007523   0.0050071   0.0008956   0.0014067
           25          26          27          28          29          30
    1   0.0000473  -0.0012621   0.0005165  -0.0007636  -0.0001791  -0.0006301
    2   0.0004071  -0.0003467   0.0004414  -0.0006191   0.0000898   0.0007139
    3  -0.0003228   0.0012289  -0.0005931   0.0002269  -0.0000543  -0.0007452
           31          32          33          34          35          36
    1  -0.0001401   0.0000572   0.0008301  -0.0016445  -0.0010185  -0.0005767
    2   0.0003263  -0.0003460   0.0006058   0.0010673  -0.0003761   0.0002156
    3  -0.0003816  -0.0004103  -0.0007298  -0.0006011   0.0001872   0.0011683
           37          38          39          40          41          42
    1  -0.0002327   0.0007787   0.0017156   0.0004916   0.0012460  -0.0010165
    2  -0.0009810  -0.0005826  -0.0005080   0.0004898   0.0000626   0.0007559
    3   0.0003046   0.0017731   0.0001848  -0.0005080  -0.0015593  -0.0005843
           43          44          45          46          47          48
    1  -0.0000965  -0.0023309  -0.0000948  -0.0004789   0.0014302   0.0011220
    2   0.0005041   0.0007602  -0.0002343   0.0018580   0.0002219   0.0005969
    3  -0.0008852   0.0001626  -0.0008669  -0.0015035  -0.0007518  -0.0008920
           49          50          51          52          53          54
    1   0.0012140   0.0012566   0.0004671   0.0002270  -0.0006667  -0.0010200
    2  -0.0005907  -0.0005108  -0.0013382  -0.0007958  -0.0001927  -0.0003806
    3   0.0001802   0.0000794   0.0010551   0.0007060   0.0012701   0.0007668
 PCM gradient for the ground-state
 Computing fast CPCM-SWIG gradient
 Updating gradient with PCM contributions...
 -- total gradient after adding PCM contribution --
---------------------------------------------------
  Atom         X              Y              Z     
---------------------------------------------------
   1       0.001134      -0.005318      -0.001346
   2       0.001326       0.001276       0.001268
   3       0.000266      -0.000722      -0.000407
   4       0.001826       0.001616       0.005035
   5       0.001898       0.003462      -0.003608
   6      -0.000830      -0.000823       0.001503
   7      -0.003202      -0.000271      -0.000102
   8      -0.005521      -0.001863      -0.001302
   9       0.003478       0.004127       0.000788
  10       0.001189      -0.001437      -0.000634
  11      -0.000185      -0.000056      -0.002377
  12       0.000686      -0.002560      -0.003051
  13      -0.000938      -0.000653      -0.000347
  14       0.002118      -0.000707       0.002509
  15      -0.002054       0.003784       0.000961
  16      -0.001321       0.002017       0.004435
  17       0.003317      -0.002293      -0.000253
  18      -0.002280       0.000616      -0.004190
  19      -0.002909      -0.006192      -0.001042
  20       0.002825       0.001330      -0.004208
  21      -0.004535       0.004164       0.000905
  22       0.003640      -0.000234       0.005142
  23       0.000537       0.000017       0.000757
  24      -0.000288       0.000156      -0.000422
  25       0.000423      -0.000168       0.001105
  26      -0.000203       0.000188      -0.000087
  27      -0.000348       0.000053       0.000378
  28       0.001004      -0.000771       0.000435
  29      -0.001422       0.000271      -0.000235
  30      -0.000185      -0.000125       0.000743
  31      -0.000507       0.000911      -0.001411
  32      -0.001092      -0.001062       0.001162
  33       0.001757       0.001128      -0.001873
  34      -0.001349       0.000883      -0.000441
  35       0.000016      -0.000127      -0.001796
  36      -0.001382       0.000110       0.002515
  37      -0.000211      -0.000187      -0.001626
  38       0.000940      -0.000997       0.002835
  39       0.001247      -0.000351       0.000109
  40      -0.000278      -0.000093       0.001451
  41       0.001824       0.000272      -0.002599
  42      -0.000543      -0.000145       0.001622
  43      -0.000521       0.001166      -0.002489
  44      -0.001589       0.000438       0.000188
  45      -0.000031      -0.001559       0.000723
  46      -0.000523       0.002539      -0.002232
  47      -0.000150      -0.000517       0.000503
  48       0.001953       0.001001      -0.001574
  49      -0.000715       0.000228       0.000045
  50       0.002325      -0.000969       0.000153
  51       0.000058       0.000243      -0.000324
  52       0.000428      -0.001623       0.001448
  53       0.000479       0.000573      -0.000180
  54      -0.001581      -0.000746       0.001437
---------------------------------------------------
 Number of fixed atoms: 0
Adjusting gradient with QM/MM Energy...State: 1
QM/MM CIS energy: -986.657977
 Computing fast CPCM-SWIG gradient for CIS density
 Updating gradient with PCM contributions...
 -- total gradient after adding PCM contribution --
---------------------------------------------------
  Atom         X              Y              Z     
---------------------------------------------------
   1      -0.000001       0.000008       0.000002
   2      -0.000013      -0.000009       0.000016
   3       0.000020       0.000022      -0.000003
   4       0.000001      -0.000005       0.000003
   5      -0.000002      -0.000001       0.000002
   6      -0.000032      -0.000018      -0.000026
   7       0.000001       0.000004       0.000001
[...]
     32  C         4.2655963308   -0.7208654212    1.4044958372
     33  H         3.5737852142   -1.1178254042    2.1382212210
     34  C         2.3716345813    0.2363947452    0.0620982677
     35  C         1.8415616448    0.7548619152   -1.1638243261
     36  H         2.4493149872    0.7468143044   -2.0611856804
     37  C         0.5532214146    1.2313896170   -1.2596539304
     38  H         0.2057647987    1.5896849016   -2.2241293555
     39  C        -0.3349722567    1.2280006827   -0.1664675698
     40  C         0.1499220726    0.6455221714    1.0257755442
     41  H        -0.4927584665    0.6076631432    1.9000884446
     42  C         1.4316045237    0.1620744934    1.1391261081
     43  H         1.7424332300   -0.2392197523    2.0968717538
     44  C        -1.6893490338    1.7893253875   -0.2669867802
     45  C        -2.7487499627    1.3077685764    0.5206571177
     46  H        -2.5764839422    0.4787272700    1.1979814690
     47  C        -4.0226689509    1.8498788211    0.4287460108
     48  H        -4.8185438745    1.4500349884    1.0482111883
     49  C        -4.2888007710    2.8864604469   -0.4607092354
     50  H        -5.2850833021    3.3073930200   -0.5344232119
     51  C        -3.2549931828    3.3749305308   -1.2530048250
     52  H        -3.4421966267    4.1863919163   -1.9485077327
     53  C        -1.9779952056    2.8409291645   -1.1535780011
     54  H        -1.1826246694    3.2609085964   -1.7594627376
   Point Group: c1    Number of degrees of freedom:   156


   Energy is   -986.657364200

 Hessian updated using BFGS update

156 Hessian modes will be used to form the next step
  Hessian Eigenvalues:
     0.000728    0.001244    0.002035    0.003914    0.004570    0.004946
     0.005892    0.007775    0.008564    0.011892    0.013410    0.015090
     0.015798    0.018505    0.018840    0.019315    0.020041    0.021379
     0.021947    0.022210    0.022525    0.022756    0.022868    0.023154
     0.023487    0.023559    0.023603    0.023704    0.023833    0.023859
     0.024082    0.024915    0.027104    0.027452    0.028472    0.028798
     0.029671    0.031085    0.032491    0.033141    0.033749    0.035184
     0.037056    0.037519    0.038514    0.041144    0.043136    0.043795
     0.047893    0.049302    0.051709    0.052550    0.053824    0.054728
     0.055133    0.058962    0.059527    0.059715    0.062105    0.066930
     0.068384    0.072015    0.072400    0.078289    0.078859    0.081145
     0.087762    0.088497    0.097368    0.106008    0.107185    0.111112
     0.116389    0.117246    0.122964    0.132371    0.140217    0.159628
     0.159689    0.159860    0.159896    0.159943    0.159964    0.159968
     0.159990    0.160001    0.160005    0.160068    0.160188    0.160371
     0.160679    0.163268    0.166179    0.175092    0.185285    0.219206
     0.220064    0.220176    0.235067    0.236001    0.250323    0.251708
     0.258123    0.270241    0.283875    0.290074    0.292455    0.296932
     0.302495    0.309620    0.313324    0.322703    0.324767    0.329729
     0.342196    0.343917    0.345552    0.346145    0.346924    0.347128
     0.347426    0.347663    0.348088    0.349332    0.349992    0.352835
     0.352937    0.353167    0.353462    0.353948    0.354108    0.354785
     0.354852    0.355101    0.355327    0.355995    0.356046    0.359128
     0.361822    0.365017    0.375388    0.387762    0.400574    0.415001
     0.418043    0.421346    0.421530    0.422310    0.452260    0.455615
     0.463291    0.467549    0.472614    0.476489    0.478338    0.499475

 Minimum search - taking simple RFO step
 Searching for Lamda that Minimizes Along All modes
 Value Taken    Lamda =  -0.00000006
 Step Taken.  Stepsize is  0.006841

                             Maximum     Tolerance    Cnvgd?
         Gradient           0.000008      0.000020     YES
         Displacement       0.004466      0.001200      NO
         Energy change      0.000001      0.000001     YES

 Final energy is   -986.657364199952     


 ******************************
 **  OPTIMIZATION CONVERGED  **
 ******************************

                       Coordinates (Angstroms)
     ATOM                X               Y               Z
      1  C         2.6302422690    4.5765983056    1.0360202725
      2  C         3.1071480250    3.1430577752    0.7673265751
      3  N         4.5334035432    2.9890617388    0.8622862533
      4  H         2.9892113727    4.9409467179    2.0008032062
      5  H         2.9537872810    5.2645393087    0.2538926867
      6  H         2.6317974116    2.4553749962    1.4591842251
      7  H         1.5403493137    4.5648944767    1.0505166773
      8  C         5.2024568383    2.5139461408    2.0495656330
      9  H         5.9559415752    3.2618408306    2.3176602297
     10  H         5.7699332778    1.6195021251    1.7424613648
     11  H         2.8117806646    2.8382123665   -0.2394602148
     12  C         4.3140132009    2.2004401360    3.2356136063
     13  H         3.6270033264    1.3831386944    3.0161055749
     14  H         4.9541899818    1.8820196823    4.0595389144
     15  H         3.7454689823    3.0734971016    3.5645536214
     16  C         5.3780750485    3.5485901120   -0.1828762817
     17  H         6.1946384201    2.8444806550   -0.3396512830
     18  H         4.7853605209    3.5842421439   -1.0958940581
     19  C         5.9378655668    4.9325889923    0.1572387181
     20  H         6.5264956013    5.2796105516   -0.6928263085
     21  H         5.1470152688    5.6583038434    0.3458344090
     22  H         6.5946675674    4.8983471774    1.0278931962
     23  C         3.7554601108   -0.0640961787    0.2327306623
     24  C         4.7465138465    0.3097951638   -0.7400803491
     25  H         4.4378777251    0.7572281445   -1.6772901296
     26  C         6.0950747576    0.1288932857   -0.5115775444
     27  H         6.8049182994    0.4347275260   -1.2752815690
     28  C         6.5665241779   -0.4245017893    0.6853467350
     29  H         7.6260152386   -0.5747059256    0.8540031922
     30  C         5.6109672677   -0.8890618448    1.6173911206
     31  H         5.9466869661   -1.3917553687    2.5195352877
     32  C         4.2655963308   -0.7208654212    1.4044958372
     33  H         3.5737852142   -1.1178254042    2.1382212210
     34  C         2.3716345813    0.2363947452    0.0620982677
     35  C         1.8415616448    0.7548619152   -1.1638243261
     36  H         2.4493149872    0.7468143044   -2.0611856804
     37  C         0.5532214146    1.2313896170   -1.2596539304
     38  H         0.2057647987    1.5896849016   -2.2241293555
     39  C        -0.3349722567    1.2280006827   -0.1664675698
     40  C         0.1499220726    0.6455221714    1.0257755442
     41  H        -0.4927584665    0.6076631432    1.9000884446
     42  C         1.4316045237    0.1620744934    1.1391261081
     43  H         1.7424332300   -0.2392197523    2.0968717538
     44  C        -1.6893490338    1.7893253875   -0.2669867802
     45  C        -2.7487499627    1.3077685764    0.5206571177
     46  H        -2.5764839422    0.4787272700    1.1979814690
     47  C        -4.0226689509    1.8498788211    0.4287460108
     48  H        -4.8185438745    1.4500349884    1.0482111883
     49  C        -4.2888007710    2.8864604469   -0.4607092354
     50  H        -5.2850833021    3.3073930200   -0.5344232119
     51  C        -3.2549931828    3.3749305308   -1.2530048250
     52  H        -3.4421966267    4.1863919163   -1.9485077327
     53  C        -1.9779952056    2.8409291645   -1.1535780011
     54  H        -1.1826246694    3.2609085964   -1.7594627376

Z-matrix Print:
$molecule
0 1
N 
C  1 1.437685
H  2 1.085142 1 108.940049
H  2 1.092608 1 107.407169 3 -115.556750 0
C  1 1.443260 2 123.331530 3 -26.311939 0
H  5 1.094971 1 107.191375 2 -125.478927 0
H  5 1.102893 1 106.047520 2 122.128653 0
C  1 1.455646 2 119.147653 3 164.877933 0
H  8 1.089120 1 107.379538 2 -26.756727 0
H  8 1.089552 1 106.845616 2 -142.376735 0
C  5 1.514704 1 116.127719 2 -1.171244 0
H  11 1.090022 5 111.542364 1 63.493358 0
H  11 1.090904 5 107.914788 1 -178.466712 0
H  11 1.092553 5 112.060322 1 -59.523965 0
C  8 1.531175 1 113.584084 2 96.144345 0
H  15 1.089805 8 112.026779 1 -58.853100 0
H  15 1.090651 8 108.166588 1 -178.193155 0
H  15 1.091146 8 111.650340 1 63.257576 0
C  2 1.534495 1 113.379579 3 123.015258 0
H  19 1.090052 2 107.640453 1 -173.803533 0
H  19 1.090719 2 111.806595 1 67.453798 0
H  19 1.091977 2 111.361264 1 -54.757236 0
C  7 2.435159 5 165.911712 1 -32.512133 0
H  23 1.083295 7 111.637351 5 161.590627 0
C  23 1.400407 7 85.940655 5 39.614880 0
H  25 1.086580 23 119.473593 7 111.437646 0
C  25 1.379694 23 121.494873 7 -67.833040 0
H  27 1.083427 25 118.415207 23 179.024930 0
C  23 1.413369 7 76.612352 5 -80.188257 0
H  29 1.085943 23 119.404822 7 -106.643080 0
C  29 1.372457 23 121.343446 7 73.515943 0
H  31 1.083759 29 118.413996 23 178.474362 0
C  31 1.436878 29 122.041915 23 -0.197510 0
C  33 1.426318 31 122.568568 29 -173.550515 0
C  34 1.431492 33 122.423201 31 13.129739 0
H  35 1.083941 34 119.715935 33 -6.966020 0
C  35 1.374511 34 122.142221 33 169.780932 0
H  37 1.085769 35 118.246632 34 -176.578479 0
C  37 1.412745 35 122.320842 34 1.084872 0
C  39 1.408530 37 116.074546 35 2.803966 0
H  40 1.085962 39 119.230972 37 174.883379 0
C  40 1.376983 39 122.353599 37 -2.968677 0
H  42 1.083829 40 118.008169 39 177.099166 0
C  39 1.469533 37 122.110088 35 -177.637677 0
C  44 1.405208 39 121.708034 37 -28.221423 0
H  45 1.084322 44 119.496435 39 -2.084725 0
C  45 1.387516 44 121.410428 39 179.452812 0
H  47 1.084910 45 119.453010 44 179.673690 0
C  47 1.391567 45 120.594991 44 0.497223 0
H  49 1.084065 47 120.561393 45 179.796250 0
C  49 1.391076 47 118.913361 45 -0.271442 0
H  51 1.085006 49 119.965936 47 -179.672066 0
C  51 1.387720 49 120.527098 47 -0.277219 0
H  53 1.084478 51 119.067945 49 -178.052960 0
$end

 
 --------------------------------------------------------------
 
                    Orbital Energies (a.u.)
 --------------------------------------------------------------
 
 Alpha MOs
 -- Occupied --
-14.3814 -10.3070 -10.3061 -10.3055 -10.3042 -10.2930 -10.2926 -10.2918
-10.2910 -10.2909 -10.2903 -10.2903 -10.2902 -10.2901 -10.2900 -10.2897
-10.2895 -10.2889 -10.2878 -10.2877 -10.2838 -10.2817 -10.2620 -10.2553
-10.2501  -1.0019  -0.9807  -0.9660  -0.9485  -0.8962  -0.8595  -0.8556
 -0.8529  -0.8496  -0.8456  -0.8446  -0.8084  -0.7947  -0.7413  -0.7240
 -0.7198  -0.7064  -0.7005  -0.6960  -0.6738  -0.6699  -0.6327  -0.6324
 -0.6131  -0.5770  -0.5731  -0.5687  -0.5663  -0.5460  -0.5429  -0.5375
 -0.5367  -0.5226  -0.5185  -0.5123  -0.5106  -0.5087  -0.5011  -0.4986
 -0.4956  -0.4822  -0.4780  -0.4706  -0.4657  -0.4599  -0.4585  -0.4486
 -0.4429  -0.4411  -0.4378  -0.4325  -0.4286  -0.4232  -0.4220  -0.4134
 -0.4073  -0.4013  -0.3961  -0.3747  -0.3381  -0.3356  -0.3335  -0.3330
 -0.2800  -0.2375
 -- Virtual --
 -0.0052   0.0453   0.0561   0.0578   0.0720   0.1090   0.1148   0.1259
  0.1308   0.1321   0.1386   0.1501   0.1607   0.1625   0.1639   0.1685
  0.1754   0.1858   0.1868   0.1888   0.1958   0.1989   0.2020   0.2049
  0.2160   0.2210   0.2255   0.2344   0.2387   0.2430   0.2451   0.2510
  0.2592   0.2619   0.2637   0.2688   0.2704   0.2761   0.2868   0.2929
  0.3019   0.3128   0.3154   0.3166   0.3219   0.3253   0.3339   0.3460
  0.3518   0.3553   0.3592   0.3630   0.3686   0.3710   0.3834   0.3903
  0.3921   0.3966   0.4007   0.4053   0.4096   0.4158   0.4223   0.4260
  0.4305   0.4338   0.4439   0.4618   0.4620   0.4668   0.4690   0.4731
  0.4747   0.4823   0.4911   0.4942   0.4970   0.5005   0.5085   0.5103
  0.5166   0.5207   0.5231   0.5259   0.5296   0.5312   0.5320   0.5393
  0.5475   0.5482   0.5536   0.5610   0.5693   0.5817   0.5874   0.5966
  0.5990   0.6059   0.6130   0.6216   0.6237   0.6284   0.6349   0.6413
  0.6418   0.6504   0.6509   0.6627   0.6639   0.6673   0.6719   0.6774
  0.6809   0.6828   0.6857   0.6865   0.6897   0.6914   0.6946   0.7010
  0.7058   0.7066   0.7103   0.7118   0.7144   0.7161   0.7212   0.7237
  0.7285   0.7324   0.7372   0.7399   0.7415   0.7434   0.7486   0.7612
  0.7682   0.7729   0.7775   0.7863   0.7894   0.8005   0.8104   0.8167
  0.8212   0.8252   0.8324   0.8373   0.8404   0.8480   0.8546   0.8563
  0.8658   0.8788   0.8825   0.8877   0.8981   0.9038   0.9157   0.9171
  0.9193   0.9280   0.9333   0.9371   0.9450   0.9456   0.9616   0.9703
  0.9781   0.9813   0.9939   1.0091   1.0116   1.0282   1.0351   1.0404
  1.0476   1.0539   1.0666   1.0730   1.0850   1.0906   1.0953   1.0978
  1.1123   1.1221   1.1307   1.1400   1.1485   1.1529   1.1606   1.1657
  1.1755   1.1821   1.1873   1.1903   1.2066   1.2132   1.2250   1.2306
  1.2365   1.2406   1.2429   1.2529   1.2627   1.2841   1.2958   1.3217
  1.3313   1.3370   1.3507   1.3567   1.3641   1.3744   1.3916   1.3979
  1.4204   1.4409   1.4659   1.4820   1.4969   1.5025   1.5107   1.5179
  1.5273   1.5363   1.5388   1.5393   1.5421   1.5478   1.5504   1.5517
  1.5625   1.5691   1.5746   1.5793   1.5842   1.5910   1.6005   1.6099
  1.6152   1.6204   1.6240   1.6330   1.6397   1.6435   1.6465   1.6541
  1.6580   1.6633   1.6675   1.6724   1.6778   1.6823   1.6853   1.6915
  1.7012   1.7054   1.7111   1.7161   1.7200   1.7272   1.7345   1.7413
  1.7461   1.7542   1.7592   1.7664   1.7710   1.7723   1.7816   1.7927
  1.8003   1.8132   1.8203   1.8250   1.8356   1.8390   1.8432   1.8462
  1.8521   1.8544   1.8609   1.8620   1.8706   1.8738   1.8767   1.8875
  1.8915   1.8966   1.9059   1.9145   1.9261   1.9356   1.9452   1.9506
  1.9601   1.9667   1.9738   1.9807   1.9832   1.9872   1.9949   2.0053
  2.0078   2.0141   2.0179   2.0247   2.0323   2.0352   2.0444   2.0457
  2.0584   2.0601   2.0641   2.0753   2.0796   2.0882   2.0951   2.0984
  2.1071   2.1194   2.1239   2.1288   2.1339   2.1530   2.1582   2.1697
  2.1725   2.1762   2.1784   2.1945   2.2065   2.2130   2.2237   2.2393
  2.2700   2.2713   2.2813   2.2886   2.3023   2.3171   2.3446   2.3631
  2.3698   2.3768   2.3813   2.3876   2.3991   2.4038   2.4149   2.4182
  2.4288   2.4330   2.4399   2.4418   2.4593   2.4678   2.4711   2.4780
  2.4843   2.4957   2.5033   2.5097   2.5104   2.5170   2.5197   2.5319
  2.5385   2.5519   2.5620   2.5760   2.5858   2.5955   2.6175   2.6317
  2.6393   2.6529   2.6582   2.6624   2.6636   2.6746   2.6755   2.6778
  2.6909   2.6936   2.7010   2.7062   2.7084   2.7163   2.7220   2.7262
  2.7313   2.7360   2.7464   2.7530   2.7558   2.7640   2.7688   2.7738
  2.7744   2.7819   2.7867   2.7877   2.7902   2.8009   2.8031   2.8158
  2.8209   2.8244   2.8293   2.8375   2.8379   2.8470   2.8602   2.8730
  2.8742   2.8828   2.8905   2.8985   2.9139   2.9178   2.9261   2.9354
  2.9422   2.9460   2.9556   2.9590   2.9846   2.9854   2.9920   3.0053
  3.0119   3.0126   3.0212   3.0267   3.0411   3.0433   3.0578   3.0598
  3.0939   3.0996   3.1095   3.1276   3.1428   3.1661   3.1945   3.2077
  3.2251   3.2460   3.2796   3.3144   3.3312   3.3367   3.3541   3.3564
  3.4081   3.4391   3.4432   3.4599   3.5066   3.5142   3.5424   3.5748
  3.5852   3.5983   3.6176   3.6397   3.6583   3.6767   3.6920   3.7009
  3.7123   3.7440   3.7633   3.8096   3.8881   3.8991   3.9125   3.9163
  3.9276   3.9321   3.9451   3.9579   3.9758   3.9892   4.0195   4.0623
  4.0736   4.1085   4.1291   4.1483   4.1855   4.2266   4.2296   4.2340
  4.2662   4.2818   4.3083   4.3191   4.3403   4.4313   4.5451   4.7482
  4.8789   4.9212   4.9540   5.0614   5.1350  23.6031  23.7442  23.8628
 23.9859  24.0111  24.0210  24.0327  24.0482  24.0520  24.0611  24.0660
 24.0833  24.1048  24.1081  24.1211  24.1372  24.1564  24.1963  24.2423
 24.2603  24.2702  24.3152  24.3209  24.3313  35.7315
 --------------------------------------------------------------
 
          Ground-State Mulliken Net Atomic Charges

     Atom                 Charge (a.u.)
  ----------------------------------------
      1 C                    -0.309958
      2 C                    -0.117574
      3 N                    -0.410412
      4 H                     0.107489
      5 H                     0.110541
      6 H                     0.134281
      7 H                     0.103898
      8 C                    -0.052617
      9 H                     0.091214
     10 H                     0.126411
     11 H                     0.118318
     12 C                    -0.374021
     13 H                     0.113041
     14 H                     0.122204
     15 H                     0.123314
     16 C                    -0.145805
     17 H                     0.112679
     18 H                     0.115056
     19 C                    -0.298965
     20 H                     0.105122
     21 H                     0.112806
     22 H                     0.112688
     23 C                    -0.019197
     24 C                    -0.077491
     25 H                     0.116408
     26 C                    -0.112886
     27 H                     0.124332
     28 C                    -0.147175
     29 H                     0.122440
     30 C                    -0.109316
     31 H                     0.119646
     32 C                    -0.120414
     33 H                     0.125937
     34 C                    -0.052415
     35 C                    -0.120410
     36 H                     0.122644
     37 C                    -0.103058
     38 H                     0.122411
     39 C                    -0.014909
     40 C                    -0.110885
     41 H                     0.120124
     42 C                    -0.112952
     43 H                     0.121714
     44 C                    -0.046433
     45 C                    -0.103064
     46 H                     0.123821
     47 C                    -0.121709
     48 H                     0.122611
     49 C                    -0.115033
     50 H                     0.123815
     51 C                    -0.121751
     52 H                     0.122759
     53 C                    -0.103672
     54 H                     0.124399
  ----------------------------------------
  Sum of atomic charges =     0.000000

 -----------------------------------------------------------------
                    Cartesian Multipole Moments
 -----------------------------------------------------------------
    Charge (ESU x 10^10)
                -0.0000
    Dipole Moment (Debye)
         X      -0.1593      Y      -0.1789      Z       0.0096
       Tot       0.2397
    Quadrupole Moments (Debye-Ang)
        XX    -137.9190     XY      -5.7512     YY    -158.6350
        XZ      -2.0445     YZ     -10.6977     ZZ    -142.6051
    Octopole Moments (Debye-Ang^2)
       XXX    -924.3991    XXY    -257.8290    XYY    -367.9192
       YYY    -808.5348    XXZ     -49.1228    XYZ     -13.8947
       YYZ     -84.8396    XZZ    -296.8348    YZZ    -256.9335
       ZZZ    -166.4061
    Hexadecapole Moments (Debye-Ang^3)
      XXXX  -13635.3727   XXXY   -1593.8526   XXYY   -3458.2954
      XYYY   -1495.1125   YYYY   -5621.7280   XXXZ   -1024.5089
      XXYZ    -222.4212   XYYZ    -301.0248   YYYZ    -336.1558
      XXZZ   -2595.3011   XYZZ    -456.9972   YYZZ   -1137.9944
      XZZZ    -999.0114   YZZZ    -250.9811   ZZZZ   -1563.0020
 -----------------------------------------------------------------
 Total job time:  113940.35s(wall), 1377459.84s(cpu) 
 Fri Sep 23 07:35:55 2022

        *************************************************************
        *                                                           *
        *  Thank you very much for using Q-Chem.  Have a nice day.  *
        *                                                           *
        *************************************************************


2022-09-23 07:36:01,604 INFO Rocket finished
INFO:rocket.launcher:Rocket finished
